/*--------------------------------*- C++ -*----------------------------------*\
  =========                 |
  \\      /  F ield         | OpenFOAM: The Open Source CFD Toolbox
   \\    /   O peration     | Website:  https://openfoam.org
    \\  /    A nd           | Version:  10
     \\/     M anipulation  |
\*---------------------------------------------------------------------------*/
FoamFile
{
    format      ascii;
    class       volVectorField;
    location    "0.805";
    object      Ua;
}
// * * * * * * * * * * * * * * * * * * * * * * * * * * * * * * * * * * * * * //

dimensions      [0 1 -1 0 0 0 0];

internalField   nonuniform List<vector> 
100
(
(0.00711527 0 0)
(0.0142042 0 0)
(0.0141513 0 0)
(0.0140981 0 0)
(0.0140448 0 0)
(0.0139916 0 0)
(0.0139386 0 0)
(0.0138856 0 0)
(0.0138327 0 0)
(0.0137799 0 0)
(0.0137272 0 0)
(0.0136746 0 0)
(0.0136219 0 0)
(0.0135694 0 0)
(0.0135168 0 0)
(0.0134642 0 0)
(0.0134116 0 0)
(0.0133589 0 0)
(0.0133062 0 0)
(0.0132534 0 0)
(0.0132006 0 0)
(0.0131476 0 0)
(0.0130946 0 0)
(0.0130414 0 0)
(0.012988 0 0)
(0.0129346 0 0)
(0.0128809 0 0)
(0.012827 0 0)
(0.012773 0 0)
(0.0127187 0 0)
(0.0126642 0 0)
(0.0126094 0 0)
(0.0125544 0 0)
(0.012499 0 0)
(0.0124433 0 0)
(0.0123873 0 0)
(0.0123308 0 0)
(0.012274 0 0)
(0.0122167 0 0)
(0.0121588 0 0)
(0.0121005 0 0)
(0.0120415 0 0)
(0.0119819 0 0)
(0.0119215 0 0)
(0.0118603 0 0)
(0.0117981 0 0)
(0.0117349 0 0)
(0.0116705 0 0)
(0.0116046 0 0)
(0.0115372 0 0)
(0.0114678 0 0)
(0.0113962 0 0)
(0.0113218 0 0)
(0.0112439 0 0)
(0.0111618 0 0)
(0.0110742 0 0)
(0.0109793 0 0)
(0.0108746 0 0)
(0.010756 0 0)
(0.0106168 0 0)
(0.0104453 0 0)
(0.0102185 0 0)
(0.00988535 0 0)
(0.00930508 0 0)
(0.00793645 0 0)
(0.0040292 0 0)
(0.000556252 0 0)
(2.30173e-08 0 0)
(0 0 0)
(0 0 0)
(0 0 0)
(0 0 0)
(0 0 0)
(0 0 0)
(0 0 0)
(0 0 0)
(0 0 0)
(0 0 0)
(0 0 0)
(0 0 0)
(0 0 0)
(0 0 0)
(0 0 0)
(0 0 0)
(0 0 0)
(0 0 0)
(0 0 0)
(0 0 0)
(0 0 0)
(0 0 0)
(0 0 0)
(0 0 0)
(0 0 0)
(0 0 0)
(0 0 0)
(0 0 0)
(0 0 0)
(0 0 0)
(0 0 0)
(0 0 0)
)
;

boundaryField
{
    inlet
    {
        type            fixedValue;
        value           uniform (0 0 0);
    }
    outlet
    {
        type            zeroGradient;
    }
    yzfaces
    {
        type            empty;
    }
}


// ************************************************************************* //
