/*--------------------------------*- C++ -*----------------------------------*\
  =========                 |
  \\      /  F ield         | OpenFOAM: The Open Source CFD Toolbox
   \\    /   O peration     | Website:  https://openfoam.org
    \\  /    A nd           | Version:  10
     \\/     M anipulation  |
\*---------------------------------------------------------------------------*/
FoamFile
{
    format      ascii;
    class       volVectorField;
    location    "0.805";
    object      Ub;
}
// * * * * * * * * * * * * * * * * * * * * * * * * * * * * * * * * * * * * * //

dimensions      [0 1 -1 0 0 0 0];

internalField   nonuniform List<vector> 
100
(
(2.52919e-05 0 0)
(7.69046e-05 0 0)
(0.00012981 0 0)
(0.00018303 0 0)
(0.000236283 0 0)
(0.000289468 0 0)
(0.00034255 0 0)
(0.000395525 0 0)
(0.0004484 0 0)
(0.000501185 0 0)
(0.000553898 0 0)
(0.000606553 0 0)
(0.000659168 0 0)
(0.00071176 0 0)
(0.000764343 0 0)
(0.000816935 0 0)
(0.00086955 0 0)
(0.000922203 0 0)
(0.00097491 0 0)
(0.00102768 0 0)
(0.00108054 0 0)
(0.00113349 0 0)
(0.00118656 0 0)
(0.00123975 0 0)
(0.00129308 0 0)
(0.00134657 0 0)
(0.00140023 0 0)
(0.00145407 0 0)
(0.00150812 0 0)
(0.00156239 0 0)
(0.00161691 0 0)
(0.00167168 0 0)
(0.00172674 0 0)
(0.0017821 0 0)
(0.00183779 0 0)
(0.00189384 0 0)
(0.00195027 0 0)
(0.00200713 0 0)
(0.00206445 0 0)
(0.00212227 0 0)
(0.00218064 0 0)
(0.00223962 0 0)
(0.00229926 0 0)
(0.00235965 0 0)
(0.00242087 0 0)
(0.00248302 0 0)
(0.00254623 0 0)
(0.00261066 0 0)
(0.00267647 0 0)
(0.00274392 0 0)
(0.00281328 0 0)
(0.00288493 0 0)
(0.00295935 0 0)
(0.00303718 0 0)
(0.0031193 0 0)
(0.00320693 0 0)
(0.0033018 0 0)
(0.00340652 0 0)
(0.00352513 0 0)
(0.00366431 0 0)
(0.00383582 0 0)
(0.00406259 0 0)
(0.00439577 0 0)
(0.00497603 0 0)
(0.00634467 0 0)
(0.0102519 0 0)
(0.0137249 0 0)
(0.0142811 0 0)
(0.0142811 0 0)
(0.0142811 0 0)
(0.0142811 0 0)
(0.0142811 0 0)
(0.0142811 0 0)
(0.0142811 0 0)
(0.0142811 0 0)
(0.0142811 0 0)
(0.0142811 0 0)
(0.0142811 0 0)
(0.0142811 0 0)
(0.0142811 0 0)
(0.0142811 0 0)
(0.0142811 0 0)
(0.0142811 0 0)
(0.0142811 0 0)
(0.0142811 0 0)
(0.0142811 0 0)
(0.0142811 0 0)
(0.0142811 0 0)
(0.0142811 0 0)
(0.0142811 0 0)
(0.0142811 0 0)
(0.0142811 0 0)
(0.0142811 0 0)
(0.0142811 0 0)
(0.0142811 0 0)
(0.0142811 0 0)
(0.0142811 0 0)
(0.0142811 0 0)
(0.0142811 0 0)
(0.0142811 0 0)
)
;

boundaryField
{
    inlet
    {
        type            fixedValue;
        value           uniform (0 0 0);
    }
    outlet
    {
        type            zeroGradient;
    }
    yzfaces
    {
        type            empty;
    }
}


// ************************************************************************* //
