/*--------------------------------*- C++ -*----------------------------------*\
  =========                 |
  \\      /  F ield         | OpenFOAM: The Open Source CFD Toolbox
   \\    /   O peration     | Website:  https://openfoam.org
    \\  /    A nd           | Version:  10
     \\/     M anipulation  |
\*---------------------------------------------------------------------------*/
FoamFile
{
    format      ascii;
    class       volVectorField;
    location    "0.875";
    object      Ua;
}
// * * * * * * * * * * * * * * * * * * * * * * * * * * * * * * * * * * * * * //

dimensions      [0 1 -1 0 0 0 0];

internalField   nonuniform List<vector> 
100
(
(0.0071172 0 0)
(0.0142102 0 0)
(0.0141616 0 0)
(0.0141127 0 0)
(0.0140637 0 0)
(0.0140147 0 0)
(0.0139658 0 0)
(0.013917 0 0)
(0.0138683 0 0)
(0.0138197 0 0)
(0.0137712 0 0)
(0.0137227 0 0)
(0.0136743 0 0)
(0.0136259 0 0)
(0.0135776 0 0)
(0.0135292 0 0)
(0.0134809 0 0)
(0.0134325 0 0)
(0.0133842 0 0)
(0.0133357 0 0)
(0.0132873 0 0)
(0.0132388 0 0)
(0.0131902 0 0)
(0.0131415 0 0)
(0.0130928 0 0)
(0.0130439 0 0)
(0.0129949 0 0)
(0.0129458 0 0)
(0.0128966 0 0)
(0.0128472 0 0)
(0.0127977 0 0)
(0.012748 0 0)
(0.012698 0 0)
(0.0126479 0 0)
(0.0125976 0 0)
(0.012547 0 0)
(0.0124962 0 0)
(0.0124451 0 0)
(0.0123938 0 0)
(0.0123421 0 0)
(0.0122901 0 0)
(0.0122377 0 0)
(0.0121849 0 0)
(0.0121316 0 0)
(0.012078 0 0)
(0.0120238 0 0)
(0.011969 0 0)
(0.0119136 0 0)
(0.0118576 0 0)
(0.0118007 0 0)
(0.011743 0 0)
(0.0116844 0 0)
(0.0116246 0 0)
(0.0115636 0 0)
(0.011501 0 0)
(0.0114368 0 0)
(0.0113705 0 0)
(0.0113017 0 0)
(0.01123 0 0)
(0.0111544 0 0)
(0.0110741 0 0)
(0.0109876 0 0)
(0.0108929 0 0)
(0.0107867 0 0)
(0.010664 0 0)
(0.0105163 0 0)
(0.0103279 0 0)
(0.0100665 0 0)
(0.00965364 0 0)
(0.00884315 0 0)
(0.00652906 0 0)
(0.0024128 0 0)
(2.92484e-05 0 0)
(3.56838e-13 0 0)
(0 0 0)
(0 0 0)
(0 0 0)
(0 0 0)
(0 0 0)
(0 0 0)
(0 0 0)
(0 0 0)
(0 0 0)
(0 0 0)
(0 0 0)
(0 0 0)
(0 0 0)
(0 0 0)
(0 0 0)
(0 0 0)
(0 0 0)
(0 0 0)
(0 0 0)
(0 0 0)
(0 0 0)
(0 0 0)
(0 0 0)
(0 0 0)
(0 0 0)
(0 0 0)
)
;

boundaryField
{
    inlet
    {
        type            fixedValue;
        value           uniform (0 0 0);
    }
    outlet
    {
        type            zeroGradient;
    }
    yzfaces
    {
        type            empty;
    }
}


// ************************************************************************* //
