/*--------------------------------*- C++ -*----------------------------------*\
  =========                 |
  \\      /  F ield         | OpenFOAM: The Open Source CFD Toolbox
   \\    /   O peration     | Website:  https://openfoam.org
    \\  /    A nd           | Version:  10
     \\/     M anipulation  |
\*---------------------------------------------------------------------------*/
FoamFile
{
    format      ascii;
    class       volVectorField;
    location    "1.275";
    object      Ub;
}
// * * * * * * * * * * * * * * * * * * * * * * * * * * * * * * * * * * * * * //

dimensions      [0 1 -1 0 0 0 0];

internalField   nonuniform List<vector> 
100
(
(1.54863e-05 0 0)
(4.73549e-05 0 0)
(8.04248e-05 0 0)
(0.000113918 0 0)
(0.000147572 0 0)
(0.00018127 0 0)
(0.000214959 0 0)
(0.00024861 0 0)
(0.000282212 0 0)
(0.000315757 0 0)
(0.000349245 0 0)
(0.000382676 0 0)
(0.000416054 0 0)
(0.000449383 0 0)
(0.000482665 0 0)
(0.000515907 0 0)
(0.000549112 0 0)
(0.000582284 0 0)
(0.000615429 0 0)
(0.00064855 0 0)
(0.000681652 0 0)
(0.00071474 0 0)
(0.000747817 0 0)
(0.000780887 0 0)
(0.000813955 0 0)
(0.000847023 0 0)
(0.000880097 0 0)
(0.000913179 0 0)
(0.000946273 0 0)
(0.000979383 0 0)
(0.00101251 0 0)
(0.00104566 0 0)
(0.00107884 0 0)
(0.00111205 0 0)
(0.00114529 0 0)
(0.00117857 0 0)
(0.00121188 0 0)
(0.00124524 0 0)
(0.00127864 0 0)
(0.0013121 0 0)
(0.0013456 0 0)
(0.00137917 0 0)
(0.00141279 0 0)
(0.00144647 0 0)
(0.00148023 0 0)
(0.00151405 0 0)
(0.00154795 0 0)
(0.00158193 0 0)
(0.00161598 0 0)
(0.00165013 0 0)
(0.00168436 0 0)
(0.0017187 0 0)
(0.00175313 0 0)
(0.00178766 0 0)
(0.00182231 0 0)
(0.00185707 0 0)
(0.00189195 0 0)
(0.00192696 0 0)
(0.00196211 0 0)
(0.00199739 0 0)
(0.00203282 0 0)
(0.00206841 0 0)
(0.00210416 0 0)
(0.00214009 0 0)
(0.0021762 0 0)
(0.0022125 0 0)
(0.00224901 0 0)
(0.00228575 0 0)
(0.00232271 0 0)
(0.00235993 0 0)
(0.00239741 0 0)
(0.00243518 0 0)
(0.00247326 0 0)
(0.00251168 0 0)
(0.00255047 0 0)
(0.00258965 0 0)
(0.00262926 0 0)
(0.00266935 0 0)
(0.00270997 0 0)
(0.00275118 0 0)
(0.00279304 0 0)
(0.00283564 0 0)
(0.00287907 0 0)
(0.00292345 0 0)
(0.00296893 0 0)
(0.00301567 0 0)
(0.00306391 0 0)
(0.00311391 0 0)
(0.00316603 0 0)
(0.00322072 0 0)
(0.0032786 0 0)
(0.00334049 0 0)
(0.00340752 0 0)
(0.00348132 0 0)
(0.0035643 0 0)
(0.00366016 0 0)
(0.00377493 0 0)
(0.00391909 0 0)
(0.00411259 0 0)
(0.0043984 0 0)
)
;

boundaryField
{
    inlet
    {
        type            fixedValue;
        value           uniform (0 0 0);
    }
    outlet
    {
        type            zeroGradient;
    }
    yzfaces
    {
        type            empty;
    }
}


// ************************************************************************* //
