/*--------------------------------*- C++ -*----------------------------------*\
  =========                 |
  \\      /  F ield         | OpenFOAM: The Open Source CFD Toolbox
   \\    /   O peration     | Website:  https://openfoam.org
    \\  /    A nd           | Version:  10
     \\/     M anipulation  |
\*---------------------------------------------------------------------------*/
FoamFile
{
    format      ascii;
    class       volVectorField;
    location    "0.885";
    object      Ub;
}
// * * * * * * * * * * * * * * * * * * * * * * * * * * * * * * * * * * * * * //

dimensions      [0 1 -1 0 0 0 0];

internalField   nonuniform List<vector> 
100
(
(2.28791e-05 0 0)
(6.96457e-05 0 0)
(0.000117699 0 0)
(0.0001661 0 0)
(0.000214564 0 0)
(0.000262987 0 0)
(0.000311327 0 0)
(0.000359572 0 0)
(0.000407723 0 0)
(0.000455787 0 0)
(0.000503774 0 0)
(0.000551697 0 0)
(0.000599567 0 0)
(0.000647399 0 0)
(0.000695203 0 0)
(0.000742993 0 0)
(0.000790781 0 0)
(0.000838578 0 0)
(0.000886395 0 0)
(0.000934244 0 0)
(0.000982136 0 0)
(0.00103008 0 0)
(0.00107809 0 0)
(0.00112618 0 0)
(0.00117435 0 0)
(0.00122262 0 0)
(0.00127099 0 0)
(0.00131948 0 0)
(0.0013681 0 0)
(0.00141687 0 0)
(0.00146578 0 0)
(0.00151487 0 0)
(0.00156413 0 0)
(0.00161358 0 0)
(0.00166324 0 0)
(0.00171312 0 0)
(0.00176324 0 0)
(0.00181361 0 0)
(0.00186426 0 0)
(0.0019152 0 0)
(0.00196646 0 0)
(0.00201806 0 0)
(0.00207004 0 0)
(0.00212241 0 0)
(0.00217522 0 0)
(0.00222851 0 0)
(0.00228232 0 0)
(0.0023367 0 0)
(0.00239171 0 0)
(0.00244742 0 0)
(0.00250391 0 0)
(0.00256128 0 0)
(0.00261964 0 0)
(0.00267914 0 0)
(0.00273995 0 0)
(0.00280227 0 0)
(0.00286638 0 0)
(0.00293262 0 0)
(0.00300143 0 0)
(0.00307339 0 0)
(0.00314928 0 0)
(0.00323019 0 0)
(0.00331766 0 0)
(0.00341395 0 0)
(0.00352252 0 0)
(0.00364898 0 0)
(0.00380293 0 0)
(0.00400244 0 0)
(0.00428575 0 0)
(0.00474975 0 0)
(0.00572163 0 0)
(0.00867039 0 0)
(0.0126078 0 0)
(0.0142771 0 0)
(0.0142807 0 0)
(0.0142807 0 0)
(0.0142807 0 0)
(0.0142807 0 0)
(0.0142807 0 0)
(0.0142807 0 0)
(0.0142807 0 0)
(0.0142807 0 0)
(0.0142807 0 0)
(0.0142807 0 0)
(0.0142807 0 0)
(0.0142807 0 0)
(0.0142807 0 0)
(0.0142807 0 0)
(0.0142807 0 0)
(0.0142807 0 0)
(0.0142807 0 0)
(0.0142807 0 0)
(0.0142807 0 0)
(0.0142807 0 0)
(0.0142807 0 0)
(0.0142807 0 0)
(0.0142807 0 0)
(0.0142807 0 0)
(0.0142807 0 0)
(0.0142807 0 0)
)
;

boundaryField
{
    inlet
    {
        type            fixedValue;
        value           uniform (0 0 0);
    }
    outlet
    {
        type            zeroGradient;
    }
    yzfaces
    {
        type            empty;
    }
}


// ************************************************************************* //
