/*--------------------------------*- C++ -*----------------------------------*\
  =========                 |
  \\      /  F ield         | OpenFOAM: The Open Source CFD Toolbox
   \\    /   O peration     | Website:  https://openfoam.org
    \\  /    A nd           | Version:  10
     \\/     M anipulation  |
\*---------------------------------------------------------------------------*/
FoamFile
{
    format      ascii;
    class       volVectorField;
    location    "1.085";
    object      Ua;
}
// * * * * * * * * * * * * * * * * * * * * * * * * * * * * * * * * * * * * * //

dimensions      [0 1 -1 0 0 0 0];

internalField   nonuniform List<vector> 
100
(
(0.00712134 0 0)
(0.0142233 0 0)
(0.0141843 0 0)
(0.0141449 0 0)
(0.0141053 0 0)
(0.0140657 0 0)
(0.0140262 0 0)
(0.0139867 0 0)
(0.0139474 0 0)
(0.013908 0 0)
(0.0138688 0 0)
(0.0138296 0 0)
(0.0137905 0 0)
(0.0137514 0 0)
(0.0137124 0 0)
(0.0136734 0 0)
(0.0136344 0 0)
(0.0135955 0 0)
(0.0135566 0 0)
(0.0135177 0 0)
(0.0134787 0 0)
(0.0134398 0 0)
(0.0134009 0 0)
(0.013362 0 0)
(0.013323 0 0)
(0.013284 0 0)
(0.013245 0 0)
(0.013206 0 0)
(0.0131669 0 0)
(0.0131277 0 0)
(0.0130885 0 0)
(0.0130493 0 0)
(0.0130099 0 0)
(0.0129705 0 0)
(0.0129311 0 0)
(0.0128915 0 0)
(0.0128519 0 0)
(0.0128121 0 0)
(0.0127723 0 0)
(0.0127323 0 0)
(0.0126922 0 0)
(0.0126521 0 0)
(0.0126117 0 0)
(0.0125713 0 0)
(0.0125307 0 0)
(0.0124899 0 0)
(0.012449 0 0)
(0.0124079 0 0)
(0.0123666 0 0)
(0.0123252 0 0)
(0.0122835 0 0)
(0.0122416 0 0)
(0.0121995 0 0)
(0.0121571 0 0)
(0.0121145 0 0)
(0.0120716 0 0)
(0.0120284 0 0)
(0.0119848 0 0)
(0.0119409 0 0)
(0.0118966 0 0)
(0.0118519 0 0)
(0.0118068 0 0)
(0.0117611 0 0)
(0.0117149 0 0)
(0.0116681 0 0)
(0.0116206 0 0)
(0.0115724 0 0)
(0.0115232 0 0)
(0.0114731 0 0)
(0.0114219 0 0)
(0.0113694 0 0)
(0.0113154 0 0)
(0.0112595 0 0)
(0.0112015 0 0)
(0.0111409 0 0)
(0.0110771 0 0)
(0.0110092 0 0)
(0.0109362 0 0)
(0.0108562 0 0)
(0.0107671 0 0)
(0.0106649 0 0)
(0.0105435 0 0)
(0.0103925 0 0)
(0.0101914 0 0)
(0.0098962 0 0)
(0.00939084 0 0)
(0.00825799 0 0)
(0.00479159 0 0)
(0.00106611 0 0)
(3.85253e-07 0 0)
(0 0 0)
(0 0 0)
(0 0 0)
(0 0 0)
(0 0 0)
(0 0 0)
(0 0 0)
(0 0 0)
(0 0 0)
(0 0 0)
)
;

boundaryField
{
    inlet
    {
        type            fixedValue;
        value           uniform (0 0 0);
    }
    outlet
    {
        type            zeroGradient;
    }
    yzfaces
    {
        type            empty;
    }
}


// ************************************************************************* //
