/*--------------------------------*- C++ -*----------------------------------*\
  =========                 |
  \\      /  F ield         | OpenFOAM: The Open Source CFD Toolbox
   \\    /   O peration     | Website:  https://openfoam.org
    \\  /    A nd           | Version:  10
     \\/     M anipulation  |
\*---------------------------------------------------------------------------*/
FoamFile
{
    format      ascii;
    class       volVectorField;
    location    "1.34";
    object      Ub;
}
// * * * * * * * * * * * * * * * * * * * * * * * * * * * * * * * * * * * * * //

dimensions      [0 1 -1 0 0 0 0];

internalField   nonuniform List<vector> 
100
(
(1.46773e-05 0 0)
(4.49098e-05 0 0)
(7.63259e-05 0 0)
(0.000108171 0 0)
(0.000140184 0 0)
(0.000172253 0 0)
(0.00020432 0 0)
(0.000236358 0 0)
(0.000268352 0 0)
(0.000300296 0 0)
(0.000332186 0 0)
(0.000364023 0 0)
(0.00039581 0 0)
(0.000427548 0 0)
(0.000459241 0 0)
(0.000490894 0 0)
(0.000522509 0 0)
(0.000554092 0 0)
(0.000585644 0 0)
(0.000617172 0 0)
(0.000648678 0 0)
(0.000680166 0 0)
(0.00071164 0 0)
(0.000743103 0 0)
(0.000774559 0 0)
(0.000806011 0 0)
(0.000837463 0 0)
(0.000868918 0 0)
(0.000900379 0 0)
(0.000931849 0 0)
(0.000963331 0 0)
(0.000994828 0 0)
(0.00102634 0 0)
(0.00105788 0 0)
(0.00108944 0 0)
(0.00112103 0 0)
(0.00115264 0 0)
(0.00118429 0 0)
(0.00121598 0 0)
(0.0012477 0 0)
(0.00127947 0 0)
(0.00131128 0 0)
(0.00134313 0 0)
(0.00137504 0 0)
(0.00140699 0 0)
(0.00143901 0 0)
(0.00147108 0 0)
(0.00150321 0 0)
(0.00153541 0 0)
(0.00156768 0 0)
(0.00160002 0 0)
(0.00163243 0 0)
(0.00166493 0 0)
(0.0016975 0 0)
(0.00173016 0 0)
(0.00176292 0 0)
(0.00179576 0 0)
(0.00182871 0 0)
(0.00186176 0 0)
(0.00189492 0 0)
(0.00192819 0 0)
(0.00196158 0 0)
(0.00199509 0 0)
(0.00202874 0 0)
(0.00206252 0 0)
(0.00209645 0 0)
(0.00213053 0 0)
(0.00216477 0 0)
(0.00219917 0 0)
(0.00223376 0 0)
(0.00226854 0 0)
(0.00230352 0 0)
(0.00233871 0 0)
(0.00237413 0 0)
(0.0024098 0 0)
(0.00244572 0 0)
(0.00248193 0 0)
(0.00251844 0 0)
(0.00255527 0 0)
(0.00259247 0 0)
(0.00263004 0 0)
(0.00266805 0 0)
(0.00270651 0 0)
(0.00274549 0 0)
(0.00278505 0 0)
(0.00282524 0 0)
(0.00286615 0 0)
(0.00290787 0 0)
(0.00295053 0 0)
(0.00299424 0 0)
(0.0030392 0 0)
(0.0030856 0 0)
(0.00313372 0 0)
(0.0031839 0 0)
(0.00323658 0 0)
(0.00329234 0 0)
(0.00335198 0 0)
(0.00341657 0 0)
(0.00348767 0 0)
(0.00356754 0 0)
)
;

boundaryField
{
    inlet
    {
        type            fixedValue;
        value           uniform (0 0 0);
    }
    outlet
    {
        type            zeroGradient;
    }
    yzfaces
    {
        type            empty;
    }
}


// ************************************************************************* //
