/*--------------------------------*- C++ -*----------------------------------*\
  =========                 |
  \\      /  F ield         | OpenFOAM: The Open Source CFD Toolbox
   \\    /   O peration     | Website:  https://openfoam.org
    \\  /    A nd           | Version:  10
     \\/     M anipulation  |
\*---------------------------------------------------------------------------*/
FoamFile
{
    format      ascii;
    class       volVectorField;
    location    "0.9";
    object      Ua;
}
// * * * * * * * * * * * * * * * * * * * * * * * * * * * * * * * * * * * * * //

dimensions      [0 1 -1 0 0 0 0];

internalField   nonuniform List<vector> 
100
(
(0.00711781 0 0)
(0.0142121 0 0)
(0.0141649 0 0)
(0.0141173 0 0)
(0.0140697 0 0)
(0.014022 0 0)
(0.0139745 0 0)
(0.013927 0 0)
(0.0138797 0 0)
(0.0138324 0 0)
(0.0137852 0 0)
(0.0137381 0 0)
(0.013691 0 0)
(0.013644 0 0)
(0.013597 0 0)
(0.01355 0 0)
(0.013503 0 0)
(0.013456 0 0)
(0.013409 0 0)
(0.013362 0 0)
(0.0133149 0 0)
(0.0132678 0 0)
(0.0132206 0 0)
(0.0131734 0 0)
(0.013126 0 0)
(0.0130786 0 0)
(0.0130311 0 0)
(0.0129835 0 0)
(0.0129358 0 0)
(0.0128879 0 0)
(0.0128399 0 0)
(0.0127917 0 0)
(0.0127434 0 0)
(0.0126949 0 0)
(0.0126462 0 0)
(0.0125973 0 0)
(0.0125482 0 0)
(0.0124989 0 0)
(0.0124493 0 0)
(0.0123994 0 0)
(0.0123492 0 0)
(0.0122988 0 0)
(0.012248 0 0)
(0.0121968 0 0)
(0.0121452 0 0)
(0.0120932 0 0)
(0.0120408 0 0)
(0.0119878 0 0)
(0.0119343 0 0)
(0.0118801 0 0)
(0.0118253 0 0)
(0.0117697 0 0)
(0.0117133 0 0)
(0.0116559 0 0)
(0.0115973 0 0)
(0.0115376 0 0)
(0.0114763 0 0)
(0.0114133 0 0)
(0.0113483 0 0)
(0.0112808 0 0)
(0.0112102 0 0)
(0.0111359 0 0)
(0.0110569 0 0)
(0.0109716 0 0)
(0.010878 0 0)
(0.0107728 0 0)
(0.0106511 0 0)
(0.0105042 0 0)
(0.0103161 0 0)
(0.010054 0 0)
(0.00963806 0 0)
(0.00881542 0 0)
(0.00644698 0 0)
(0.0023447 0 0)
(2.45242e-05 0 0)
(1.89368e-13 0 0)
(0 0 0)
(0 0 0)
(0 0 0)
(0 0 0)
(0 0 0)
(0 0 0)
(0 0 0)
(0 0 0)
(0 0 0)
(0 0 0)
(0 0 0)
(0 0 0)
(0 0 0)
(0 0 0)
(0 0 0)
(0 0 0)
(0 0 0)
(0 0 0)
(0 0 0)
(0 0 0)
(0 0 0)
(0 0 0)
(0 0 0)
(0 0 0)
)
;

boundaryField
{
    inlet
    {
        type            fixedValue;
        value           uniform (0 0 0);
    }
    outlet
    {
        type            zeroGradient;
    }
    yzfaces
    {
        type            empty;
    }
}


// ************************************************************************* //
