/*--------------------------------*- C++ -*----------------------------------*\
  =========                 |
  \\      /  F ield         | OpenFOAM: The Open Source CFD Toolbox
   \\    /   O peration     | Website:  https://openfoam.org
    \\  /    A nd           | Version:  10
     \\/     M anipulation  |
\*---------------------------------------------------------------------------*/
FoamFile
{
    format      ascii;
    class       volVectorField;
    location    "1.385";
    object      Ub;
}
// * * * * * * * * * * * * * * * * * * * * * * * * * * * * * * * * * * * * * //

dimensions      [0 1 -1 0 0 0 0];

internalField   nonuniform List<vector> 
100
(
(1.41624e-05 0 0)
(4.33528e-05 0 0)
(7.37145e-05 0 0)
(0.000104508 0 0)
(0.000135475 0 0)
(0.000166503 0 0)
(0.000197537 0 0)
(0.000228545 0 0)
(0.000259514 0 0)
(0.000290435 0 0)
(0.000321306 0 0)
(0.000352127 0 0)
(0.000382899 0 0)
(0.000413624 0 0)
(0.000444305 0 0)
(0.000474945 0 0)
(0.000505549 0 0)
(0.000536118 0 0)
(0.000566658 0 0)
(0.000597172 0 0)
(0.000627662 0 0)
(0.000658133 0 0)
(0.000688588 0 0)
(0.000719031 0 0)
(0.000749463 0 0)
(0.00077989 0 0)
(0.000810313 0 0)
(0.000840735 0 0)
(0.00087116 0 0)
(0.000901591 0 0)
(0.00093203 0 0)
(0.00096248 0 0)
(0.000992944 0 0)
(0.00102342 0 0)
(0.00105392 0 0)
(0.00108444 0 0)
(0.00111499 0 0)
(0.00114556 0 0)
(0.00117616 0 0)
(0.0012068 0 0)
(0.00123746 0 0)
(0.00126817 0 0)
(0.00129891 0 0)
(0.0013297 0 0)
(0.00136053 0 0)
(0.00139141 0 0)
(0.00142234 0 0)
(0.00145333 0 0)
(0.00148436 0 0)
(0.00151546 0 0)
(0.00154662 0 0)
(0.00157784 0 0)
(0.00160913 0 0)
(0.00164049 0 0)
(0.00167193 0 0)
(0.00170344 0 0)
(0.00173503 0 0)
(0.0017667 0 0)
(0.00179847 0 0)
(0.00183032 0 0)
(0.00186227 0 0)
(0.00189433 0 0)
(0.00192648 0 0)
(0.00195875 0 0)
(0.00199113 0 0)
(0.00202363 0 0)
(0.00205625 0 0)
(0.00208901 0 0)
(0.00212191 0 0)
(0.00215495 0 0)
(0.00218815 0 0)
(0.00222151 0 0)
(0.00225504 0 0)
(0.00228875 0 0)
(0.00232266 0 0)
(0.00235677 0 0)
(0.00239109 0 0)
(0.00242565 0 0)
(0.00246046 0 0)
(0.00249553 0 0)
(0.00253089 0 0)
(0.00256656 0 0)
(0.00260257 0 0)
(0.00263894 0 0)
(0.00267571 0 0)
(0.00271292 0 0)
(0.00275061 0 0)
(0.00278883 0 0)
(0.00282766 0 0)
(0.00286715 0 0)
(0.00290739 0 0)
(0.0029485 0 0)
(0.00299058 0 0)
(0.0030338 0 0)
(0.00307834 0 0)
(0.00312444 0 0)
(0.00317239 0 0)
(0.00322257 0 0)
(0.00327549 0 0)
(0.00333181 0 0)
)
;

boundaryField
{
    inlet
    {
        type            fixedValue;
        value           uniform (0 0 0);
    }
    outlet
    {
        type            zeroGradient;
    }
    yzfaces
    {
        type            empty;
    }
}


// ************************************************************************* //
