/*--------------------------------*- C++ -*----------------------------------*\
  =========                 |
  \\      /  F ield         | OpenFOAM: The Open Source CFD Toolbox
   \\    /   O peration     | Website:  https://openfoam.org
    \\  /    A nd           | Version:  10
     \\/     M anipulation  |
\*---------------------------------------------------------------------------*/
FoamFile
{
    format      ascii;
    class       volVectorField;
    location    "1.38";
    object      Ub;
}
// * * * * * * * * * * * * * * * * * * * * * * * * * * * * * * * * * * * * * //

dimensions      [0 1 -1 0 0 0 0];

internalField   nonuniform List<vector> 
100
(
(1.4218e-05 0 0)
(4.35207e-05 0 0)
(7.39962e-05 0 0)
(0.000104903 0 0)
(0.000135983 0 0)
(0.000167124 0 0)
(0.000198269 0 0)
(0.000229388 0 0)
(0.000260468 0 0)
(0.000291499 0 0)
(0.000322481 0 0)
(0.000353411 0 0)
(0.000384292 0 0)
(0.000415126 0 0)
(0.000445917 0 0)
(0.000476666 0 0)
(0.000507379 0 0)
(0.000538058 0 0)
(0.000568707 0 0)
(0.00059933 0 0)
(0.00062993 0 0)
(0.00066051 0 0)
(0.000691075 0 0)
(0.000721628 0 0)
(0.000752171 0 0)
(0.000782707 0 0)
(0.000813241 0 0)
(0.000843775 0 0)
(0.000874312 0 0)
(0.000904854 0 0)
(0.000935406 0 0)
(0.000965968 0 0)
(0.000996545 0 0)
(0.00102714 0 0)
(0.00105775 0 0)
(0.00108839 0 0)
(0.00111905 0 0)
(0.00114974 0 0)
(0.00118045 0 0)
(0.00121121 0 0)
(0.00124199 0 0)
(0.00127281 0 0)
(0.00130368 0 0)
(0.00133459 0 0)
(0.00136554 0 0)
(0.00139654 0 0)
(0.00142759 0 0)
(0.0014587 0 0)
(0.00148986 0 0)
(0.00152108 0 0)
(0.00155237 0 0)
(0.00158372 0 0)
(0.00161514 0 0)
(0.00164663 0 0)
(0.00167819 0 0)
(0.00170984 0 0)
(0.00174156 0 0)
(0.00177337 0 0)
(0.00180527 0 0)
(0.00183727 0 0)
(0.00186936 0 0)
(0.00190155 0 0)
(0.00193385 0 0)
(0.00196626 0 0)
(0.00199879 0 0)
(0.00203145 0 0)
(0.00206423 0 0)
(0.00209714 0 0)
(0.0021302 0 0)
(0.0021634 0 0)
(0.00219677 0 0)
(0.0022303 0 0)
(0.002264 0 0)
(0.00229789 0 0)
(0.00233198 0 0)
(0.00236628 0 0)
(0.0024008 0 0)
(0.00243556 0 0)
(0.00247057 0 0)
(0.00250586 0 0)
(0.00254145 0 0)
(0.00257735 0 0)
(0.00261361 0 0)
(0.00265024 0 0)
(0.00268728 0 0)
(0.00272478 0 0)
(0.00276279 0 0)
(0.00280135 0 0)
(0.00284053 0 0)
(0.00288042 0 0)
(0.0029211 0 0)
(0.00296269 0 0)
(0.00300531 0 0)
(0.00304914 0 0)
(0.00309437 0 0)
(0.00314127 0 0)
(0.00319017 0 0)
(0.00324148 0 0)
(0.00329576 0 0)
(0.00335377 0 0)
)
;

boundaryField
{
    inlet
    {
        type            fixedValue;
        value           uniform (0 0 0);
    }
    outlet
    {
        type            zeroGradient;
    }
    yzfaces
    {
        type            empty;
    }
}


// ************************************************************************* //
