/*--------------------------------*- C++ -*----------------------------------*\
  =========                 |
  \\      /  F ield         | OpenFOAM: The Open Source CFD Toolbox
   \\    /   O peration     | Website:  https://openfoam.org
    \\  /    A nd           | Version:  10
     \\/     M anipulation  |
\*---------------------------------------------------------------------------*/
FoamFile
{
    format      ascii;
    class       volVectorField;
    location    "0.095";
    object      Ub;
}
// * * * * * * * * * * * * * * * * * * * * * * * * * * * * * * * * * * * * * //

dimensions      [0 1 -1 0 0 0 0];

internalField   nonuniform List<vector> 
100
(
(0.000227348 0 0)
(0.000687317 0 0)
(0.00116273 0 0)
(0.00166646 0 0)
(0.00222063 0 0)
(0.0028701 0 0)
(0.00373008 0 0)
(0.00521351 0 0)
(0.0090613 0 0)
(0.0131068 0 0)
(0.0142847 0 0)
(0.0142852 0 0)
(0.0142852 0 0)
(0.0142852 0 0)
(0.0142852 0 0)
(0.0142852 0 0)
(0.0142852 0 0)
(0.0142852 0 0)
(0.0142852 0 0)
(0.0142852 0 0)
(0.0142852 0 0)
(0.0142852 0 0)
(0.0142852 0 0)
(0.0142852 0 0)
(0.0142852 0 0)
(0.0142852 0 0)
(0.0142852 0 0)
(0.0142852 0 0)
(0.0142852 0 0)
(0.0142852 0 0)
(0.0142852 0 0)
(0.0142852 0 0)
(0.0142852 0 0)
(0.0142852 0 0)
(0.0142852 0 0)
(0.0142852 0 0)
(0.0142852 0 0)
(0.0142852 0 0)
(0.0142852 0 0)
(0.0142852 0 0)
(0.0142852 0 0)
(0.0142852 0 0)
(0.0142852 0 0)
(0.0142852 0 0)
(0.0142852 0 0)
(0.0142852 0 0)
(0.0142852 0 0)
(0.0142852 0 0)
(0.0142852 0 0)
(0.0142852 0 0)
(0.0142852 0 0)
(0.0142852 0 0)
(0.0142852 0 0)
(0.0142852 0 0)
(0.0142852 0 0)
(0.0142852 0 0)
(0.0142852 0 0)
(0.0142852 0 0)
(0.0142852 0 0)
(0.0142852 0 0)
(0.0142852 0 0)
(0.0142852 0 0)
(0.0142852 0 0)
(0.0142852 0 0)
(0.0142852 0 0)
(0.0142852 0 0)
(0.0142852 0 0)
(0.0142852 0 0)
(0.0142852 0 0)
(0.0142852 0 0)
(0.0142852 0 0)
(0.0142852 0 0)
(0.0142852 0 0)
(0.0142852 0 0)
(0.0142852 0 0)
(0.0142852 0 0)
(0.0142852 0 0)
(0.0142852 0 0)
(0.0142852 0 0)
(0.0142852 0 0)
(0.0142852 0 0)
(0.0142852 0 0)
(0.0142852 0 0)
(0.0142852 0 0)
(0.0142852 0 0)
(0.0142852 0 0)
(0.0142852 0 0)
(0.0142852 0 0)
(0.0142852 0 0)
(0.0142852 0 0)
(0.0142852 0 0)
(0.0142852 0 0)
(0.0142852 0 0)
(0.0142852 0 0)
(0.0142852 0 0)
(0.0142852 0 0)
(0.0142852 0 0)
(0.0142852 0 0)
(0.0142852 0 0)
(0.0142852 0 0)
)
;

boundaryField
{
    inlet
    {
        type            fixedValue;
        value           uniform (0 0 0);
    }
    outlet
    {
        type            zeroGradient;
    }
    yzfaces
    {
        type            empty;
    }
}


// ************************************************************************* //
