/*--------------------------------*- C++ -*----------------------------------*\
  =========                 |
  \\      /  F ield         | OpenFOAM: The Open Source CFD Toolbox
   \\    /   O peration     | Website:  https://openfoam.org
    \\  /    A nd           | Version:  10
     \\/     M anipulation  |
\*---------------------------------------------------------------------------*/
FoamFile
{
    format      ascii;
    class       volVectorField;
    location    "1.21";
    object      Ua;
}
// * * * * * * * * * * * * * * * * * * * * * * * * * * * * * * * * * * * * * //

dimensions      [0 1 -1 0 0 0 0];

internalField   nonuniform List<vector> 
100
(
(0.00712302 0 0)
(0.0142287 0 0)
(0.0141938 0 0)
(0.0141585 0 0)
(0.0141231 0 0)
(0.0140876 0 0)
(0.0140521 0 0)
(0.0140166 0 0)
(0.0139813 0 0)
(0.0139459 0 0)
(0.0139107 0 0)
(0.0138755 0 0)
(0.0138403 0 0)
(0.0138053 0 0)
(0.0137702 0 0)
(0.0137352 0 0)
(0.0137002 0 0)
(0.0136653 0 0)
(0.0136304 0 0)
(0.0135955 0 0)
(0.0135606 0 0)
(0.0135258 0 0)
(0.0134909 0 0)
(0.013456 0 0)
(0.0134212 0 0)
(0.0133863 0 0)
(0.0133514 0 0)
(0.0133165 0 0)
(0.0132816 0 0)
(0.0132467 0 0)
(0.0132117 0 0)
(0.0131767 0 0)
(0.0131417 0 0)
(0.0131066 0 0)
(0.0130715 0 0)
(0.0130363 0 0)
(0.0130011 0 0)
(0.0129658 0 0)
(0.0129305 0 0)
(0.0128951 0 0)
(0.0128596 0 0)
(0.012824 0 0)
(0.0127884 0 0)
(0.0127527 0 0)
(0.0127169 0 0)
(0.0126811 0 0)
(0.0126451 0 0)
(0.012609 0 0)
(0.0125728 0 0)
(0.0125365 0 0)
(0.0125001 0 0)
(0.0124636 0 0)
(0.0124269 0 0)
(0.0123902 0 0)
(0.0123532 0 0)
(0.0123161 0 0)
(0.0122789 0 0)
(0.0122415 0 0)
(0.0122039 0 0)
(0.0121661 0 0)
(0.0121281 0 0)
(0.0120899 0 0)
(0.0120515 0 0)
(0.0120128 0 0)
(0.0119739 0 0)
(0.0119347 0 0)
(0.0118952 0 0)
(0.0118554 0 0)
(0.0118152 0 0)
(0.0117747 0 0)
(0.0117337 0 0)
(0.0116924 0 0)
(0.0116505 0 0)
(0.0116081 0 0)
(0.011565 0 0)
(0.0115213 0 0)
(0.0114769 0 0)
(0.0114316 0 0)
(0.0113853 0 0)
(0.0113379 0 0)
(0.0112892 0 0)
(0.011239 0 0)
(0.0111869 0 0)
(0.0111327 0 0)
(0.0110758 0 0)
(0.0110156 0 0)
(0.0109512 0 0)
(0.0108816 0 0)
(0.0108048 0 0)
(0.0107185 0 0)
(0.0106186 0 0)
(0.0104987 0 0)
(0.0103474 0 0)
(0.0101426 0 0)
(0.00983579 0 0)
(0.00929508 0 0)
(0.00802503 0 0)
(0.00426078 0 0)
(0.000706711 0 0)
(6.3246e-08 0 0)
)
;

boundaryField
{
    inlet
    {
        type            fixedValue;
        value           uniform (0 0 0);
    }
    outlet
    {
        type            zeroGradient;
    }
    yzfaces
    {
        type            empty;
    }
}


// ************************************************************************* //
