/*--------------------------------*- C++ -*----------------------------------*\
  =========                 |
  \\      /  F ield         | OpenFOAM: The Open Source CFD Toolbox
   \\    /   O peration     | Website:  https://openfoam.org
    \\  /    A nd           | Version:  10
     \\/     M anipulation  |
\*---------------------------------------------------------------------------*/
FoamFile
{
    format      ascii;
    class       volVectorField;
    location    "0.855";
    object      Ua;
}
// * * * * * * * * * * * * * * * * * * * * * * * * * * * * * * * * * * * * * //

dimensions      [0 1 -1 0 0 0 0];

internalField   nonuniform List<vector> 
100
(
(0.00711669 0 0)
(0.0142086 0 0)
(0.0141589 0 0)
(0.0141088 0 0)
(0.0140586 0 0)
(0.0140085 0 0)
(0.0139585 0 0)
(0.0139086 0 0)
(0.0138587 0 0)
(0.013809 0 0)
(0.0137594 0 0)
(0.0137098 0 0)
(0.0136602 0 0)
(0.0136107 0 0)
(0.0135612 0 0)
(0.0135117 0 0)
(0.0134623 0 0)
(0.0134128 0 0)
(0.0133632 0 0)
(0.0133136 0 0)
(0.013264 0 0)
(0.0132143 0 0)
(0.0131645 0 0)
(0.0131147 0 0)
(0.0130647 0 0)
(0.0130146 0 0)
(0.0129644 0 0)
(0.012914 0 0)
(0.0128635 0 0)
(0.0128128 0 0)
(0.012762 0 0)
(0.0127109 0 0)
(0.0126597 0 0)
(0.0126082 0 0)
(0.0125564 0 0)
(0.0125044 0 0)
(0.0124522 0 0)
(0.0123996 0 0)
(0.0123467 0 0)
(0.0122934 0 0)
(0.0122397 0 0)
(0.0121857 0 0)
(0.0121311 0 0)
(0.0120761 0 0)
(0.0120205 0 0)
(0.0119644 0 0)
(0.0119076 0 0)
(0.01185 0 0)
(0.0117916 0 0)
(0.0117323 0 0)
(0.0116719 0 0)
(0.0116104 0 0)
(0.0115474 0 0)
(0.0114828 0 0)
(0.0114164 0 0)
(0.0113476 0 0)
(0.011276 0 0)
(0.0112011 0 0)
(0.0111218 0 0)
(0.0110369 0 0)
(0.0109448 0 0)
(0.0108427 0 0)
(0.0107265 0 0)
(0.0105895 0 0)
(0.0104195 0 0)
(0.010193 0 0)
(0.00985713 0 0)
(0.00926489 0 0)
(0.0078424 0 0)
(0.00387089 0 0)
(0.000467113 0 0)
(1.1363e-08 0 0)
(0 0 0)
(0 0 0)
(0 0 0)
(0 0 0)
(0 0 0)
(0 0 0)
(0 0 0)
(0 0 0)
(0 0 0)
(0 0 0)
(0 0 0)
(0 0 0)
(0 0 0)
(0 0 0)
(0 0 0)
(0 0 0)
(0 0 0)
(0 0 0)
(0 0 0)
(0 0 0)
(0 0 0)
(0 0 0)
(0 0 0)
(0 0 0)
(0 0 0)
(0 0 0)
(0 0 0)
(0 0 0)
)
;

boundaryField
{
    inlet
    {
        type            fixedValue;
        value           uniform (0 0 0);
    }
    outlet
    {
        type            zeroGradient;
    }
    yzfaces
    {
        type            empty;
    }
}


// ************************************************************************* //
