/*--------------------------------*- C++ -*----------------------------------*\
  =========                 |
  \\      /  F ield         | OpenFOAM: The Open Source CFD Toolbox
   \\    /   O peration     | Website:  https://openfoam.org
    \\  /    A nd           | Version:  10
     \\/     M anipulation  |
\*---------------------------------------------------------------------------*/
FoamFile
{
    format      ascii;
    class       volVectorField;
    location    "0.11";
    object      Ub;
}
// * * * * * * * * * * * * * * * * * * * * * * * * * * * * * * * * * * * * * //

dimensions      [0 1 -1 0 0 0 0];

internalField   nonuniform List<vector> 
100
(
(0.000195683 0 0)
(0.000590209 0 0)
(0.000993662 0 0)
(0.0014129 0 0)
(0.0018587 0 0)
(0.00234925 0 0)
(0.00292088 0 0)
(0.00366253 0 0)
(0.00486577 0 0)
(0.00787432 0 0)
(0.0121879 0 0)
(0.0142759 0 0)
(0.0142851 0 0)
(0.0142851 0 0)
(0.0142851 0 0)
(0.0142851 0 0)
(0.0142851 0 0)
(0.0142851 0 0)
(0.0142851 0 0)
(0.0142851 0 0)
(0.0142851 0 0)
(0.0142851 0 0)
(0.0142851 0 0)
(0.0142851 0 0)
(0.0142851 0 0)
(0.0142851 0 0)
(0.0142851 0 0)
(0.0142851 0 0)
(0.0142851 0 0)
(0.0142851 0 0)
(0.0142851 0 0)
(0.0142851 0 0)
(0.0142851 0 0)
(0.0142851 0 0)
(0.0142851 0 0)
(0.0142851 0 0)
(0.0142851 0 0)
(0.0142851 0 0)
(0.0142851 0 0)
(0.0142851 0 0)
(0.0142851 0 0)
(0.0142851 0 0)
(0.0142851 0 0)
(0.0142851 0 0)
(0.0142851 0 0)
(0.0142851 0 0)
(0.0142851 0 0)
(0.0142851 0 0)
(0.0142851 0 0)
(0.0142851 0 0)
(0.0142851 0 0)
(0.0142851 0 0)
(0.0142851 0 0)
(0.0142851 0 0)
(0.0142851 0 0)
(0.0142851 0 0)
(0.0142851 0 0)
(0.0142851 0 0)
(0.0142851 0 0)
(0.0142851 0 0)
(0.0142851 0 0)
(0.0142851 0 0)
(0.0142851 0 0)
(0.0142851 0 0)
(0.0142851 0 0)
(0.0142851 0 0)
(0.0142851 0 0)
(0.0142851 0 0)
(0.0142851 0 0)
(0.0142851 0 0)
(0.0142851 0 0)
(0.0142851 0 0)
(0.0142851 0 0)
(0.0142851 0 0)
(0.0142851 0 0)
(0.0142851 0 0)
(0.0142851 0 0)
(0.0142851 0 0)
(0.0142851 0 0)
(0.0142851 0 0)
(0.0142851 0 0)
(0.0142851 0 0)
(0.0142851 0 0)
(0.0142851 0 0)
(0.0142851 0 0)
(0.0142851 0 0)
(0.0142851 0 0)
(0.0142851 0 0)
(0.0142851 0 0)
(0.0142851 0 0)
(0.0142851 0 0)
(0.0142851 0 0)
(0.0142851 0 0)
(0.0142851 0 0)
(0.0142851 0 0)
(0.0142851 0 0)
(0.0142851 0 0)
(0.0142851 0 0)
(0.0142851 0 0)
(0.0142851 0 0)
)
;

boundaryField
{
    inlet
    {
        type            fixedValue;
        value           uniform (0 0 0);
    }
    outlet
    {
        type            zeroGradient;
    }
    yzfaces
    {
        type            empty;
    }
}


// ************************************************************************* //
