/*--------------------------------*- C++ -*----------------------------------*\
  =========                 |
  \\      /  F ield         | OpenFOAM: The Open Source CFD Toolbox
   \\    /   O peration     | Website:  https://openfoam.org
    \\  /    A nd           | Version:  10
     \\/     M anipulation  |
\*---------------------------------------------------------------------------*/
FoamFile
{
    format      ascii;
    class       volVectorField;
    location    "1.44";
    object      Ub;
}
// * * * * * * * * * * * * * * * * * * * * * * * * * * * * * * * * * * * * * //

dimensions      [0 1 -1 0 0 0 0];

internalField   nonuniform List<vector> 
100
(
(1.35776e-05 0 0)
(4.15834e-05 0 0)
(7.07456e-05 0 0)
(0.000100342 0 0)
(0.000130118 0 0)
(0.000159962 0 0)
(0.000189818 0 0)
(0.000219654 0 0)
(0.000249455 0 0)
(0.000279214 0 0)
(0.000308925 0 0)
(0.00033859 0 0)
(0.000368207 0 0)
(0.000397779 0 0)
(0.000427308 0 0)
(0.000456798 0 0)
(0.000486251 0 0)
(0.00051567 0 0)
(0.000545058 0 0)
(0.00057442 0 0)
(0.000603757 0 0)
(0.000633074 0 0)
(0.000662373 0 0)
(0.000691657 0 0)
(0.000720929 0 0)
(0.000750191 0 0)
(0.000779448 0 0)
(0.000808701 0 0)
(0.000837954 0 0)
(0.000867208 0 0)
(0.000896466 0 0)
(0.000925731 0 0)
(0.000955006 0 0)
(0.000984292 0 0)
(0.00101359 0 0)
(0.00104291 0 0)
(0.00107224 0 0)
(0.0011016 0 0)
(0.00113098 0 0)
(0.00116039 0 0)
(0.00118982 0 0)
(0.00121928 0 0)
(0.00124878 0 0)
(0.00127831 0 0)
(0.00130788 0 0)
(0.00133748 0 0)
(0.00136713 0 0)
(0.00139682 0 0)
(0.00142656 0 0)
(0.00145635 0 0)
(0.00148619 0 0)
(0.00151608 0 0)
(0.00154603 0 0)
(0.00157603 0 0)
(0.0016061 0 0)
(0.00163623 0 0)
(0.00166643 0 0)
(0.0016967 0 0)
(0.00172704 0 0)
(0.00175746 0 0)
(0.00178795 0 0)
(0.00181853 0 0)
(0.0018492 0 0)
(0.00187995 0 0)
(0.0019108 0 0)
(0.00194174 0 0)
(0.00197279 0 0)
(0.00200395 0 0)
(0.00203521 0 0)
(0.00206659 0 0)
(0.0020981 0 0)
(0.00212973 0 0)
(0.0021615 0 0)
(0.00219341 0 0)
(0.00222546 0 0)
(0.00225768 0 0)
(0.00229006 0 0)
(0.00232261 0 0)
(0.00235535 0 0)
(0.00238829 0 0)
(0.00242144 0 0)
(0.00245481 0 0)
(0.00248842 0 0)
(0.00252229 0 0)
(0.00255643 0 0)
(0.00259087 0 0)
(0.00262563 0 0)
(0.00266075 0 0)
(0.00269625 0 0)
(0.00273216 0 0)
(0.00276854 0 0)
(0.00280544 0 0)
(0.0028429 0 0)
(0.002881 0 0)
(0.00291982 0 0)
(0.00295945 0 0)
(0.00300002 0 0)
(0.00304165 0 0)
(0.00308454 0 0)
(0.00312889 0 0)
)
;

boundaryField
{
    inlet
    {
        type            fixedValue;
        value           uniform (0 0 0);
    }
    outlet
    {
        type            zeroGradient;
    }
    yzfaces
    {
        type            empty;
    }
}


// ************************************************************************* //
