/*--------------------------------*- C++ -*----------------------------------*\
  =========                 |
  \\      /  F ield         | OpenFOAM: The Open Source CFD Toolbox
   \\    /   O peration     | Website:  https://openfoam.org
    \\  /    A nd           | Version:  10
     \\/     M anipulation  |
\*---------------------------------------------------------------------------*/
FoamFile
{
    format      ascii;
    class       volVectorField;
    location    "0.125";
    object      Ub;
}
// * * * * * * * * * * * * * * * * * * * * * * * * * * * * * * * * * * * * * //

dimensions      [0 1 -1 0 0 0 0];

internalField   nonuniform List<vector> 
100
(
(0.000171764 0 0)
(0.000517358 0 0)
(0.000868462 0 0)
(0.00122899 0 0)
(0.00160502 0 0)
(0.00200558 0 0)
(0.00244595 0 0)
(0.00295612 0 0)
(0.00360642 0 0)
(0.0046101 0 0)
(0.006908 0 0)
(0.0113553 0 0)
(0.0142103 0 0)
(0.014285 0 0)
(0.014285 0 0)
(0.014285 0 0)
(0.014285 0 0)
(0.014285 0 0)
(0.014285 0 0)
(0.014285 0 0)
(0.014285 0 0)
(0.014285 0 0)
(0.014285 0 0)
(0.014285 0 0)
(0.014285 0 0)
(0.014285 0 0)
(0.014285 0 0)
(0.014285 0 0)
(0.014285 0 0)
(0.014285 0 0)
(0.014285 0 0)
(0.014285 0 0)
(0.014285 0 0)
(0.014285 0 0)
(0.014285 0 0)
(0.014285 0 0)
(0.014285 0 0)
(0.014285 0 0)
(0.014285 0 0)
(0.014285 0 0)
(0.014285 0 0)
(0.014285 0 0)
(0.014285 0 0)
(0.014285 0 0)
(0.014285 0 0)
(0.014285 0 0)
(0.014285 0 0)
(0.014285 0 0)
(0.014285 0 0)
(0.014285 0 0)
(0.014285 0 0)
(0.014285 0 0)
(0.014285 0 0)
(0.014285 0 0)
(0.014285 0 0)
(0.014285 0 0)
(0.014285 0 0)
(0.014285 0 0)
(0.014285 0 0)
(0.014285 0 0)
(0.014285 0 0)
(0.014285 0 0)
(0.014285 0 0)
(0.014285 0 0)
(0.014285 0 0)
(0.014285 0 0)
(0.014285 0 0)
(0.014285 0 0)
(0.014285 0 0)
(0.014285 0 0)
(0.014285 0 0)
(0.014285 0 0)
(0.014285 0 0)
(0.014285 0 0)
(0.014285 0 0)
(0.014285 0 0)
(0.014285 0 0)
(0.014285 0 0)
(0.014285 0 0)
(0.014285 0 0)
(0.014285 0 0)
(0.014285 0 0)
(0.014285 0 0)
(0.014285 0 0)
(0.014285 0 0)
(0.014285 0 0)
(0.014285 0 0)
(0.014285 0 0)
(0.014285 0 0)
(0.014285 0 0)
(0.014285 0 0)
(0.014285 0 0)
(0.014285 0 0)
(0.014285 0 0)
(0.014285 0 0)
(0.014285 0 0)
(0.014285 0 0)
(0.014285 0 0)
(0.014285 0 0)
(0.014285 0 0)
)
;

boundaryField
{
    inlet
    {
        type            fixedValue;
        value           uniform (0 0 0);
    }
    outlet
    {
        type            zeroGradient;
    }
    yzfaces
    {
        type            empty;
    }
}


// ************************************************************************* //
