/*--------------------------------*- C++ -*----------------------------------*\
  =========                 |
  \\      /  F ield         | OpenFOAM: The Open Source CFD Toolbox
   \\    /   O peration     | Website:  https://openfoam.org
    \\  /    A nd           | Version:  10
     \\/     M anipulation  |
\*---------------------------------------------------------------------------*/
FoamFile
{
    format      ascii;
    class       volVectorField;
    location    "0.755";
    object      Ua;
}
// * * * * * * * * * * * * * * * * * * * * * * * * * * * * * * * * * * * * * //

dimensions      [0 1 -1 0 0 0 0];

internalField   nonuniform List<vector> 
100
(
(0.00711364 0 0)
(0.0141992 0 0)
(0.0141427 0 0)
(0.014086 0 0)
(0.0140292 0 0)
(0.0139726 0 0)
(0.013916 0 0)
(0.0138596 0 0)
(0.0138032 0 0)
(0.013747 0 0)
(0.0136908 0 0)
(0.0136346 0 0)
(0.0135785 0 0)
(0.0135224 0 0)
(0.0134663 0 0)
(0.0134102 0 0)
(0.013354 0 0)
(0.0132977 0 0)
(0.0132414 0 0)
(0.0131849 0 0)
(0.0131284 0 0)
(0.0130717 0 0)
(0.0130148 0 0)
(0.0129578 0 0)
(0.0129006 0 0)
(0.0128432 0 0)
(0.0127855 0 0)
(0.0127276 0 0)
(0.0126694 0 0)
(0.0126109 0 0)
(0.012552 0 0)
(0.0124928 0 0)
(0.0124333 0 0)
(0.0123733 0 0)
(0.0123128 0 0)
(0.0122518 0 0)
(0.0121903 0 0)
(0.0121282 0 0)
(0.0120653 0 0)
(0.0120018 0 0)
(0.0119374 0 0)
(0.011872 0 0)
(0.0118056 0 0)
(0.0117379 0 0)
(0.0116689 0 0)
(0.0115982 0 0)
(0.0115256 0 0)
(0.0114507 0 0)
(0.011373 0 0)
(0.011292 0 0)
(0.0112066 0 0)
(0.0111158 0 0)
(0.0110178 0 0)
(0.0109101 0 0)
(0.0107886 0 0)
(0.0106468 0 0)
(0.0104733 0 0)
(0.0102456 0 0)
(0.00991433 0 0)
(0.00934434 0 0)
(0.00802351 0 0)
(0.00418624 0 0)
(0.000650067 0 0)
(4.37459e-08 0 0)
(0 0 0)
(0 0 0)
(0 0 0)
(0 0 0)
(0 0 0)
(0 0 0)
(0 0 0)
(0 0 0)
(0 0 0)
(0 0 0)
(0 0 0)
(0 0 0)
(0 0 0)
(0 0 0)
(0 0 0)
(0 0 0)
(0 0 0)
(0 0 0)
(0 0 0)
(0 0 0)
(0 0 0)
(0 0 0)
(0 0 0)
(0 0 0)
(0 0 0)
(0 0 0)
(0 0 0)
(0 0 0)
(0 0 0)
(0 0 0)
(0 0 0)
(0 0 0)
(0 0 0)
(0 0 0)
(0 0 0)
(0 0 0)
)
;

boundaryField
{
    inlet
    {
        type            fixedValue;
        value           uniform (0 0 0);
    }
    outlet
    {
        type            zeroGradient;
    }
    yzfaces
    {
        type            empty;
    }
}


// ************************************************************************* //
