/*--------------------------------*- C++ -*----------------------------------*\
  =========                 |
  \\      /  F ield         | OpenFOAM: The Open Source CFD Toolbox
   \\    /   O peration     | Website:  https://openfoam.org
    \\  /    A nd           | Version:  10
     \\/     M anipulation  |
\*---------------------------------------------------------------------------*/
FoamFile
{
    format      ascii;
    class       volVectorField;
    location    "0.105";
    object      Ub;
}
// * * * * * * * * * * * * * * * * * * * * * * * * * * * * * * * * * * * * * //

dimensions      [0 1 -1 0 0 0 0];

internalField   nonuniform List<vector> 
100
(
(0.000205208 0 0)
(0.000619338 0 0)
(0.0010441 0 0)
(0.00148786 0 0)
(0.00196407 0 0)
(0.00249663 0 0)
(0.00313685 0 0)
(0.00402391 0 0)
(0.0056937 0 0)
(0.0099445 0 0)
(0.0136709 0 0)
(0.0142851 0 0)
(0.0142851 0 0)
(0.0142851 0 0)
(0.0142851 0 0)
(0.0142851 0 0)
(0.0142851 0 0)
(0.0142851 0 0)
(0.0142851 0 0)
(0.0142851 0 0)
(0.0142851 0 0)
(0.0142851 0 0)
(0.0142851 0 0)
(0.0142851 0 0)
(0.0142851 0 0)
(0.0142851 0 0)
(0.0142851 0 0)
(0.0142851 0 0)
(0.0142851 0 0)
(0.0142851 0 0)
(0.0142851 0 0)
(0.0142851 0 0)
(0.0142851 0 0)
(0.0142851 0 0)
(0.0142851 0 0)
(0.0142851 0 0)
(0.0142851 0 0)
(0.0142851 0 0)
(0.0142851 0 0)
(0.0142851 0 0)
(0.0142851 0 0)
(0.0142851 0 0)
(0.0142851 0 0)
(0.0142851 0 0)
(0.0142851 0 0)
(0.0142851 0 0)
(0.0142851 0 0)
(0.0142851 0 0)
(0.0142851 0 0)
(0.0142851 0 0)
(0.0142851 0 0)
(0.0142851 0 0)
(0.0142851 0 0)
(0.0142851 0 0)
(0.0142851 0 0)
(0.0142851 0 0)
(0.0142851 0 0)
(0.0142851 0 0)
(0.0142851 0 0)
(0.0142851 0 0)
(0.0142851 0 0)
(0.0142851 0 0)
(0.0142851 0 0)
(0.0142851 0 0)
(0.0142851 0 0)
(0.0142851 0 0)
(0.0142851 0 0)
(0.0142851 0 0)
(0.0142851 0 0)
(0.0142851 0 0)
(0.0142851 0 0)
(0.0142851 0 0)
(0.0142851 0 0)
(0.0142851 0 0)
(0.0142851 0 0)
(0.0142851 0 0)
(0.0142851 0 0)
(0.0142851 0 0)
(0.0142851 0 0)
(0.0142851 0 0)
(0.0142851 0 0)
(0.0142851 0 0)
(0.0142851 0 0)
(0.0142851 0 0)
(0.0142851 0 0)
(0.0142851 0 0)
(0.0142851 0 0)
(0.0142851 0 0)
(0.0142851 0 0)
(0.0142851 0 0)
(0.0142851 0 0)
(0.0142851 0 0)
(0.0142851 0 0)
(0.0142851 0 0)
(0.0142851 0 0)
(0.0142851 0 0)
(0.0142851 0 0)
(0.0142851 0 0)
(0.0142851 0 0)
(0.0142851 0 0)
)
;

boundaryField
{
    inlet
    {
        type            fixedValue;
        value           uniform (0 0 0);
    }
    outlet
    {
        type            zeroGradient;
    }
    yzfaces
    {
        type            empty;
    }
}


// ************************************************************************* //
