/*--------------------------------*- C++ -*----------------------------------*\
  =========                 |
  \\      /  F ield         | OpenFOAM: The Open Source CFD Toolbox
   \\    /   O peration     | Website:  https://openfoam.org
    \\  /    A nd           | Version:  10
     \\/     M anipulation  |
\*---------------------------------------------------------------------------*/
FoamFile
{
    format      ascii;
    class       volVectorField;
    location    "0.44";
    object      Ub;
}
// * * * * * * * * * * * * * * * * * * * * * * * * * * * * * * * * * * * * * //

dimensions      [0 1 -1 0 0 0 0];

internalField   nonuniform List<vector> 
100
(
(4.75191e-05 0 0)
(0.000143584 0 0)
(0.000240773 0 0)
(0.000337986 0 0)
(0.000435041 0 0)
(0.000531954 0 0)
(0.0006288 0 0)
(0.000725669 0 0)
(0.000822655 0 0)
(0.000919857 0 0)
(0.00101737 0 0)
(0.00111529 0 0)
(0.00121372 0 0)
(0.00131277 0 0)
(0.00141254 0 0)
(0.00151317 0 0)
(0.00161479 0 0)
(0.00171755 0 0)
(0.00182163 0 0)
(0.00192725 0 0)
(0.00203465 0 0)
(0.00214416 0 0)
(0.00225617 0 0)
(0.00237117 0 0)
(0.00248982 0 0)
(0.00261302 0 0)
(0.00274197 0 0)
(0.00287844 0 0)
(0.00302501 0 0)
(0.00318574 0 0)
(0.00336725 0 0)
(0.00358131 0 0)
(0.00385076 0 0)
(0.00422672 0 0)
(0.0048498 0 0)
(0.00626185 0 0)
(0.0102187 0 0)
(0.0137231 0 0)
(0.0142832 0 0)
(0.0142832 0 0)
(0.0142832 0 0)
(0.0142832 0 0)
(0.0142832 0 0)
(0.0142832 0 0)
(0.0142832 0 0)
(0.0142832 0 0)
(0.0142832 0 0)
(0.0142832 0 0)
(0.0142832 0 0)
(0.0142832 0 0)
(0.0142832 0 0)
(0.0142832 0 0)
(0.0142832 0 0)
(0.0142832 0 0)
(0.0142832 0 0)
(0.0142832 0 0)
(0.0142832 0 0)
(0.0142832 0 0)
(0.0142832 0 0)
(0.0142832 0 0)
(0.0142832 0 0)
(0.0142832 0 0)
(0.0142832 0 0)
(0.0142832 0 0)
(0.0142832 0 0)
(0.0142832 0 0)
(0.0142832 0 0)
(0.0142832 0 0)
(0.0142832 0 0)
(0.0142832 0 0)
(0.0142832 0 0)
(0.0142832 0 0)
(0.0142832 0 0)
(0.0142832 0 0)
(0.0142832 0 0)
(0.0142832 0 0)
(0.0142832 0 0)
(0.0142832 0 0)
(0.0142832 0 0)
(0.0142832 0 0)
(0.0142832 0 0)
(0.0142832 0 0)
(0.0142832 0 0)
(0.0142832 0 0)
(0.0142832 0 0)
(0.0142832 0 0)
(0.0142832 0 0)
(0.0142832 0 0)
(0.0142832 0 0)
(0.0142832 0 0)
(0.0142832 0 0)
(0.0142832 0 0)
(0.0142832 0 0)
(0.0142832 0 0)
(0.0142832 0 0)
(0.0142832 0 0)
(0.0142832 0 0)
(0.0142832 0 0)
(0.0142832 0 0)
(0.0142832 0 0)
)
;

boundaryField
{
    inlet
    {
        type            fixedValue;
        value           uniform (0 0 0);
    }
    outlet
    {
        type            zeroGradient;
    }
    yzfaces
    {
        type            empty;
    }
}


// ************************************************************************* //
