/*--------------------------------*- C++ -*----------------------------------*\
  =========                 |
  \\      /  F ield         | OpenFOAM: The Open Source CFD Toolbox
   \\    /   O peration     | Website:  https://openfoam.org
    \\  /    A nd           | Version:  10
     \\/     M anipulation  |
\*---------------------------------------------------------------------------*/
FoamFile
{
    format      ascii;
    class       volVectorField;
    location    "0.85";
    object      Ua;
}
// * * * * * * * * * * * * * * * * * * * * * * * * * * * * * * * * * * * * * //

dimensions      [0 1 -1 0 0 0 0];

internalField   nonuniform List<vector> 
100
(
(0.00711655 0 0)
(0.0142082 0 0)
(0.0141581 0 0)
(0.0141077 0 0)
(0.0140573 0 0)
(0.0140069 0 0)
(0.0139566 0 0)
(0.0139064 0 0)
(0.0138563 0 0)
(0.0138063 0 0)
(0.0137563 0 0)
(0.0137064 0 0)
(0.0136566 0 0)
(0.0136068 0 0)
(0.013557 0 0)
(0.0135072 0 0)
(0.0134575 0 0)
(0.0134077 0 0)
(0.0133578 0 0)
(0.013308 0 0)
(0.013258 0 0)
(0.013208 0 0)
(0.0131579 0 0)
(0.0131077 0 0)
(0.0130574 0 0)
(0.013007 0 0)
(0.0129565 0 0)
(0.0129058 0 0)
(0.012855 0 0)
(0.012804 0 0)
(0.0127528 0 0)
(0.0127014 0 0)
(0.0126497 0 0)
(0.0125979 0 0)
(0.0125458 0 0)
(0.0124934 0 0)
(0.0124408 0 0)
(0.0123878 0 0)
(0.0123345 0 0)
(0.0122808 0 0)
(0.0122267 0 0)
(0.0121722 0 0)
(0.0121172 0 0)
(0.0120617 0 0)
(0.0120056 0 0)
(0.011949 0 0)
(0.0118916 0 0)
(0.0118334 0 0)
(0.0117744 0 0)
(0.0117144 0 0)
(0.0116533 0 0)
(0.011591 0 0)
(0.0115271 0 0)
(0.0114616 0 0)
(0.0113939 0 0)
(0.0113238 0 0)
(0.0112507 0 0)
(0.0111739 0 0)
(0.0110923 0 0)
(0.0110045 0 0)
(0.0109085 0 0)
(0.0108012 0 0)
(0.0106775 0 0)
(0.0105289 0 0)
(0.0103401 0 0)
(0.0100792 0 0)
(0.0096692 0 0)
(0.00887019 0 0)
(0.00660813 0 0)
(0.00247914 0 0)
(3.46066e-05 0 0)
(6.54442e-13 0 0)
(0 0 0)
(0 0 0)
(0 0 0)
(0 0 0)
(0 0 0)
(0 0 0)
(0 0 0)
(0 0 0)
(0 0 0)
(0 0 0)
(0 0 0)
(0 0 0)
(0 0 0)
(0 0 0)
(0 0 0)
(0 0 0)
(0 0 0)
(0 0 0)
(0 0 0)
(0 0 0)
(0 0 0)
(0 0 0)
(0 0 0)
(0 0 0)
(0 0 0)
(0 0 0)
(0 0 0)
(0 0 0)
)
;

boundaryField
{
    inlet
    {
        type            fixedValue;
        value           uniform (0 0 0);
    }
    outlet
    {
        type            zeroGradient;
    }
    yzfaces
    {
        type            empty;
    }
}


// ************************************************************************* //
