/*--------------------------------*- C++ -*----------------------------------*\
  =========                 |
  \\      /  F ield         | OpenFOAM: The Open Source CFD Toolbox
   \\    /   O peration     | Website:  https://openfoam.org
    \\  /    A nd           | Version:  10
     \\/     M anipulation  |
\*---------------------------------------------------------------------------*/
FoamFile
{
    format      ascii;
    class       volVectorField;
    location    "0.85";
    object      Ub;
}
// * * * * * * * * * * * * * * * * * * * * * * * * * * * * * * * * * * * * * //

dimensions      [0 1 -1 0 0 0 0];

internalField   nonuniform List<vector> 
100
(
(2.38784e-05 0 0)
(7.26528e-05 0 0)
(0.000122717 0 0)
(0.000173116 0 0)
(0.000223566 0 0)
(0.000273963 0 0)
(0.000324268 0 0)
(0.000374473 0 0)
(0.00042458 0 0)
(0.0004746 0 0)
(0.000524543 0 0)
(0.000574424 0 0)
(0.000624258 0 0)
(0.000674057 0 0)
(0.000723837 0 0)
(0.000773611 0 0)
(0.000823392 0 0)
(0.000873193 0 0)
(0.000923027 0 0)
(0.000972906 0 0)
(0.00102284 0 0)
(0.00107285 0 0)
(0.00112294 0 0)
(0.00117312 0 0)
(0.00122341 0 0)
(0.00127382 0 0)
(0.00132436 0 0)
(0.00137505 0 0)
(0.00142589 0 0)
(0.0014769 0 0)
(0.0015281 0 0)
(0.0015795 0 0)
(0.00163111 0 0)
(0.00168296 0 0)
(0.00173506 0 0)
(0.00178743 0 0)
(0.0018401 0 0)
(0.00189307 0 0)
(0.00194639 0 0)
(0.00200007 0 0)
(0.00205415 0 0)
(0.00210867 0 0)
(0.00216365 0 0)
(0.00221915 0 0)
(0.00227522 0 0)
(0.0023319 0 0)
(0.00238928 0 0)
(0.00244743 0 0)
(0.00250644 0 0)
(0.00256642 0 0)
(0.00262752 0 0)
(0.00268988 0 0)
(0.00275373 0 0)
(0.0028193 0 0)
(0.00288693 0 0)
(0.00295702 0 0)
(0.00303012 0 0)
(0.00310697 0 0)
(0.00318857 0 0)
(0.00327634 0 0)
(0.00337233 0 0)
(0.00347969 0 0)
(0.00360341 0 0)
(0.00375192 0 0)
(0.00394074 0 0)
(0.0042017 0 0)
(0.00461166 0 0)
(0.00541067 0 0)
(0.00767273 0 0)
(0.0118017 0 0)
(0.0142463 0 0)
(0.0142809 0 0)
(0.0142809 0 0)
(0.0142809 0 0)
(0.0142809 0 0)
(0.0142809 0 0)
(0.0142809 0 0)
(0.0142809 0 0)
(0.0142809 0 0)
(0.0142809 0 0)
(0.0142809 0 0)
(0.0142809 0 0)
(0.0142809 0 0)
(0.0142809 0 0)
(0.0142809 0 0)
(0.0142809 0 0)
(0.0142809 0 0)
(0.0142809 0 0)
(0.0142809 0 0)
(0.0142809 0 0)
(0.0142809 0 0)
(0.0142809 0 0)
(0.0142809 0 0)
(0.0142809 0 0)
(0.0142809 0 0)
(0.0142809 0 0)
(0.0142809 0 0)
(0.0142809 0 0)
(0.0142809 0 0)
(0.0142809 0 0)
)
;

boundaryField
{
    inlet
    {
        type            fixedValue;
        value           uniform (0 0 0);
    }
    outlet
    {
        type            zeroGradient;
    }
    yzfaces
    {
        type            empty;
    }
}


// ************************************************************************* //
