/*--------------------------------*- C++ -*----------------------------------*\
  =========                 |
  \\      /  F ield         | OpenFOAM: The Open Source CFD Toolbox
   \\    /   O peration     | Website:  https://openfoam.org
    \\  /    A nd           | Version:  10
     \\/     M anipulation  |
\*---------------------------------------------------------------------------*/
FoamFile
{
    format      ascii;
    class       volVectorField;
    location    "0.395";
    object      Ua;
}
// * * * * * * * * * * * * * * * * * * * * * * * * * * * * * * * * * * * * * //

dimensions      [0 1 -1 0 0 0 0];

internalField   nonuniform List<vector> 
100
(
(0.00708862 0 0)
(0.0141231 0 0)
(0.0140148 0 0)
(0.0139066 0 0)
(0.0137985 0 0)
(0.0136904 0 0)
(0.0135824 0 0)
(0.0134742 0 0)
(0.0133657 0 0)
(0.0132568 0 0)
(0.0131474 0 0)
(0.0130372 0 0)
(0.0129262 0 0)
(0.0128141 0 0)
(0.0127008 0 0)
(0.0125861 0 0)
(0.0124698 0 0)
(0.0123514 0 0)
(0.0122307 0 0)
(0.0121072 0 0)
(0.0119803 0 0)
(0.0118492 0 0)
(0.0117128 0 0)
(0.0115697 0 0)
(0.0114175 0 0)
(0.011253 0 0)
(0.0110708 0 0)
(0.0108617 0 0)
(0.0106085 0 0)
(0.0102752 0 0)
(0.00977198 0 0)
(0.0088022 0 0)
(0.00601617 0 0)
(0.00195253 0 0)
(7.78432e-06 0 0)
(3.00107e-15 0 0)
(0 0 0)
(0 0 0)
(0 0 0)
(0 0 0)
(0 0 0)
(0 0 0)
(0 0 0)
(0 0 0)
(0 0 0)
(0 0 0)
(0 0 0)
(0 0 0)
(0 0 0)
(0 0 0)
(0 0 0)
(0 0 0)
(0 0 0)
(0 0 0)
(0 0 0)
(0 0 0)
(0 0 0)
(0 0 0)
(0 0 0)
(0 0 0)
(0 0 0)
(0 0 0)
(0 0 0)
(0 0 0)
(0 0 0)
(0 0 0)
(0 0 0)
(0 0 0)
(0 0 0)
(0 0 0)
(0 0 0)
(0 0 0)
(0 0 0)
(0 0 0)
(0 0 0)
(0 0 0)
(0 0 0)
(0 0 0)
(0 0 0)
(0 0 0)
(0 0 0)
(0 0 0)
(0 0 0)
(0 0 0)
(0 0 0)
(0 0 0)
(0 0 0)
(0 0 0)
(0 0 0)
(0 0 0)
(0 0 0)
(0 0 0)
(0 0 0)
(0 0 0)
(0 0 0)
(0 0 0)
(0 0 0)
(0 0 0)
(0 0 0)
(0 0 0)
)
;

boundaryField
{
    inlet
    {
        type            fixedValue;
        value           uniform (0 0 0);
    }
    outlet
    {
        type            zeroGradient;
    }
    yzfaces
    {
        type            empty;
    }
}


// ************************************************************************* //
