/*--------------------------------*- C++ -*----------------------------------*\
  =========                 |
  \\      /  F ield         | OpenFOAM: The Open Source CFD Toolbox
   \\    /   O peration     | Website:  https://openfoam.org
    \\  /    A nd           | Version:  10
     \\/     M anipulation  |
\*---------------------------------------------------------------------------*/
FoamFile
{
    format      ascii;
    class       volVectorField;
    location    "0.28";
    object      Ub;
}
// * * * * * * * * * * * * * * * * * * * * * * * * * * * * * * * * * * * * * //

dimensions      [0 1 -1 0 0 0 0];

internalField   nonuniform List<vector> 
100
(
(7.55849e-05 0 0)
(0.000227625 0 0)
(0.000380553 0 0)
(0.000533523 0 0)
(0.000686698 0 0)
(0.000840413 0 0)
(0.000995048 0 0)
(0.00115101 0 0)
(0.00130874 0 0)
(0.00146874 0 0)
(0.0016316 0 0)
(0.00179803 0 0)
(0.00196894 0 0)
(0.00214556 0 0)
(0.00232957 0 0)
(0.00252341 0 0)
(0.00273078 0 0)
(0.00295768 0 0)
(0.00321446 0 0)
(0.00352086 0 0)
(0.00391952 0 0)
(0.00452199 0 0)
(0.00572534 0 0)
(0.00921088 0 0)
(0.0130743 0 0)
(0.0142835 0 0)
(0.0142841 0 0)
(0.0142841 0 0)
(0.0142841 0 0)
(0.0142841 0 0)
(0.0142841 0 0)
(0.0142841 0 0)
(0.0142841 0 0)
(0.0142841 0 0)
(0.0142841 0 0)
(0.0142841 0 0)
(0.0142841 0 0)
(0.0142841 0 0)
(0.0142841 0 0)
(0.0142841 0 0)
(0.0142841 0 0)
(0.0142841 0 0)
(0.0142841 0 0)
(0.0142841 0 0)
(0.0142841 0 0)
(0.0142841 0 0)
(0.0142841 0 0)
(0.0142841 0 0)
(0.0142841 0 0)
(0.0142841 0 0)
(0.0142841 0 0)
(0.0142841 0 0)
(0.0142841 0 0)
(0.0142841 0 0)
(0.0142841 0 0)
(0.0142841 0 0)
(0.0142841 0 0)
(0.0142841 0 0)
(0.0142841 0 0)
(0.0142841 0 0)
(0.0142841 0 0)
(0.0142841 0 0)
(0.0142841 0 0)
(0.0142841 0 0)
(0.0142841 0 0)
(0.0142841 0 0)
(0.0142841 0 0)
(0.0142841 0 0)
(0.0142841 0 0)
(0.0142841 0 0)
(0.0142841 0 0)
(0.0142841 0 0)
(0.0142841 0 0)
(0.0142841 0 0)
(0.0142841 0 0)
(0.0142841 0 0)
(0.0142841 0 0)
(0.0142841 0 0)
(0.0142841 0 0)
(0.0142841 0 0)
(0.0142841 0 0)
(0.0142841 0 0)
(0.0142841 0 0)
(0.0142841 0 0)
(0.0142841 0 0)
(0.0142841 0 0)
(0.0142841 0 0)
(0.0142841 0 0)
(0.0142841 0 0)
(0.0142841 0 0)
(0.0142841 0 0)
(0.0142841 0 0)
(0.0142841 0 0)
(0.0142841 0 0)
(0.0142841 0 0)
(0.0142841 0 0)
(0.0142841 0 0)
(0.0142841 0 0)
(0.0142841 0 0)
(0.0142841 0 0)
)
;

boundaryField
{
    inlet
    {
        type            fixedValue;
        value           uniform (0 0 0);
    }
    outlet
    {
        type            zeroGradient;
    }
    yzfaces
    {
        type            empty;
    }
}


// ************************************************************************* //
