/*--------------------------------*- C++ -*----------------------------------*\
  =========                 |
  \\      /  F ield         | OpenFOAM: The Open Source CFD Toolbox
   \\    /   O peration     | Website:  https://openfoam.org
    \\  /    A nd           | Version:  10
     \\/     M anipulation  |
\*---------------------------------------------------------------------------*/
FoamFile
{
    format      ascii;
    class       volVectorField;
    location    "1";
    object      Ua;
}
// * * * * * * * * * * * * * * * * * * * * * * * * * * * * * * * * * * * * * //

dimensions      [0 1 -1 0 0 0 0];

internalField   nonuniform List<vector> 
100
(
(0.00711991 0 0)
(0.0142187 0 0)
(0.0141763 0 0)
(0.0141335 0 0)
(0.0140906 0 0)
(0.0140477 0 0)
(0.0140049 0 0)
(0.0139621 0 0)
(0.0139194 0 0)
(0.0138768 0 0)
(0.0138343 0 0)
(0.0137918 0 0)
(0.0137494 0 0)
(0.013707 0 0)
(0.0136647 0 0)
(0.0136224 0 0)
(0.0135802 0 0)
(0.0135379 0 0)
(0.0134957 0 0)
(0.0134534 0 0)
(0.0134112 0 0)
(0.0133689 0 0)
(0.0133266 0 0)
(0.0132842 0 0)
(0.0132419 0 0)
(0.0131994 0 0)
(0.013157 0 0)
(0.0131144 0 0)
(0.0130718 0 0)
(0.0130291 0 0)
(0.0129864 0 0)
(0.0129435 0 0)
(0.0129005 0 0)
(0.0128575 0 0)
(0.0128143 0 0)
(0.012771 0 0)
(0.0127275 0 0)
(0.0126839 0 0)
(0.0126402 0 0)
(0.0125963 0 0)
(0.0125523 0 0)
(0.012508 0 0)
(0.0124636 0 0)
(0.012419 0 0)
(0.0123741 0 0)
(0.012329 0 0)
(0.0122837 0 0)
(0.0122381 0 0)
(0.0121922 0 0)
(0.012146 0 0)
(0.0120995 0 0)
(0.0120526 0 0)
(0.0120053 0 0)
(0.0119576 0 0)
(0.0119095 0 0)
(0.0118609 0 0)
(0.0118117 0 0)
(0.0117619 0 0)
(0.0117114 0 0)
(0.0116602 0 0)
(0.0116082 0 0)
(0.0115552 0 0)
(0.0115011 0 0)
(0.0114457 0 0)
(0.0113888 0 0)
(0.0113303 0 0)
(0.0112697 0 0)
(0.0112065 0 0)
(0.0111404 0 0)
(0.0110704 0 0)
(0.0109955 0 0)
(0.0109143 0 0)
(0.0108246 0 0)
(0.0107231 0 0)
(0.0106045 0 0)
(0.0104597 0 0)
(0.0102718 0 0)
(0.0100059 0 0)
(0.00957512 0 0)
(0.0086969 0 0)
(0.00608887 0 0)
(0.0020545 0 0)
(1.11411e-05 0 0)
(1.12861e-14 0 0)
(0 0 0)
(0 0 0)
(0 0 0)
(0 0 0)
(0 0 0)
(0 0 0)
(0 0 0)
(0 0 0)
(0 0 0)
(0 0 0)
(0 0 0)
(0 0 0)
(0 0 0)
(0 0 0)
(0 0 0)
(0 0 0)
)
;

boundaryField
{
    inlet
    {
        type            fixedValue;
        value           uniform (0 0 0);
    }
    outlet
    {
        type            zeroGradient;
    }
    yzfaces
    {
        type            empty;
    }
}


// ************************************************************************* //
