/*--------------------------------*- C++ -*----------------------------------*\
  =========                 |
  \\      /  F ield         | OpenFOAM: The Open Source CFD Toolbox
   \\    /   O peration     | Website:  https://openfoam.org
    \\  /    A nd           | Version:  10
     \\/     M anipulation  |
\*---------------------------------------------------------------------------*/
FoamFile
{
    format      ascii;
    class       volVectorField;
    location    "1";
    object      Ub;
}
// * * * * * * * * * * * * * * * * * * * * * * * * * * * * * * * * * * * * * //

dimensions      [0 1 -1 0 0 0 0];

internalField   nonuniform List<vector> 
100
(
(2.00925e-05 0 0)
(6.12533e-05 0 0)
(0.000103682 0 0)
(0.000146492 0 0)
(0.000189404 0 0)
(0.000232306 0 0)
(0.00027515 0 0)
(0.000317918 0 0)
(0.000360605 0 0)
(0.000403212 0 0)
(0.000445745 0 0)
(0.000488211 0 0)
(0.00053062 0 0)
(0.000572979 0 0)
(0.000615298 0 0)
(0.000657585 0 0)
(0.00069985 0 0)
(0.000742101 0 0)
(0.000784346 0 0)
(0.000826594 0 0)
(0.000868852 0 0)
(0.000911128 0 0)
(0.000953429 0 0)
(0.000995764 0 0)
(0.00103814 0 0)
(0.00108056 0 0)
(0.00112304 0 0)
(0.00116558 0 0)
(0.00120819 0 0)
(0.00125088 0 0)
(0.00129365 0 0)
(0.00133651 0 0)
(0.00137948 0 0)
(0.00142255 0 0)
(0.00146573 0 0)
(0.00150904 0 0)
(0.00155248 0 0)
(0.00159606 0 0)
(0.00163978 0 0)
(0.00168367 0 0)
(0.00172773 0 0)
(0.00177197 0 0)
(0.00181641 0 0)
(0.00186104 0 0)
(0.0019059 0 0)
(0.00195099 0 0)
(0.00199633 0 0)
(0.00204193 0 0)
(0.00208782 0 0)
(0.00213402 0 0)
(0.00218054 0 0)
(0.00222742 0 0)
(0.00227468 0 0)
(0.00232237 0 0)
(0.0023705 0 0)
(0.00241914 0 0)
(0.00246832 0 0)
(0.00251811 0 0)
(0.00256857 0 0)
(0.00261978 0 0)
(0.00267183 0 0)
(0.00272484 0 0)
(0.00277895 0 0)
(0.00283432 0 0)
(0.00289115 0 0)
(0.00294972 0 0)
(0.00301035 0 0)
(0.00307346 0 0)
(0.00313964 0 0)
(0.00320962 0 0)
(0.00328447 0 0)
(0.00336565 0 0)
(0.00345536 0 0)
(0.00355688 0 0)
(0.00367552 0 0)
(0.00382035 0 0)
(0.00400817 0 0)
(0.00427407 0 0)
(0.00470488 0 0)
(0.0055831 0 0)
(0.00819113 0 0)
(0.0122255 0 0)
(0.0142689 0 0)
(0.01428 0 0)
(0.01428 0 0)
(0.01428 0 0)
(0.01428 0 0)
(0.01428 0 0)
(0.01428 0 0)
(0.01428 0 0)
(0.01428 0 0)
(0.01428 0 0)
(0.01428 0 0)
(0.01428 0 0)
(0.01428 0 0)
(0.01428 0 0)
(0.01428 0 0)
(0.01428 0 0)
(0.01428 0 0)
(0.01428 0 0)
)
;

boundaryField
{
    inlet
    {
        type            fixedValue;
        value           uniform (0 0 0);
    }
    outlet
    {
        type            zeroGradient;
    }
    yzfaces
    {
        type            empty;
    }
}


// ************************************************************************* //
