/*--------------------------------*- C++ -*----------------------------------*\
  =========                 |
  \\      /  F ield         | OpenFOAM: The Open Source CFD Toolbox
   \\    /   O peration     | Website:  https://openfoam.org
    \\  /    A nd           | Version:  10
     \\/     M anipulation  |
\*---------------------------------------------------------------------------*/
FoamFile
{
    format      ascii;
    class       volVectorField;
    location    "1.025";
    object      Ub;
}
// * * * * * * * * * * * * * * * * * * * * * * * * * * * * * * * * * * * * * //

dimensions      [0 1 -1 0 0 0 0];

internalField   nonuniform List<vector> 
100
(
(1.95703e-05 0 0)
(5.96793e-05 0 0)
(0.000101051 0 0)
(0.00014281 0 0)
(0.000184678 0 0)
(0.000226542 0 0)
(0.000268353 0 0)
(0.000310092 0 0)
(0.000351753 0 0)
(0.000393336 0 0)
(0.000434846 0 0)
(0.00047629 0 0)
(0.000517676 0 0)
(0.000559012 0 0)
(0.000600305 0 0)
(0.000641565 0 0)
(0.0006828 0 0)
(0.000724017 0 0)
(0.000765225 0 0)
(0.000806431 0 0)
(0.000847642 0 0)
(0.000888867 0 0)
(0.000930111 0 0)
(0.000971383 0 0)
(0.00101269 0 0)
(0.00105403 0 0)
(0.00109543 0 0)
(0.00113688 0 0)
(0.00117838 0 0)
(0.00121996 0 0)
(0.00126161 0 0)
(0.00130334 0 0)
(0.00134516 0 0)
(0.00138707 0 0)
(0.00142909 0 0)
(0.00147122 0 0)
(0.00151346 0 0)
(0.00155583 0 0)
(0.00159833 0 0)
(0.00164097 0 0)
(0.00168376 0 0)
(0.00172672 0 0)
(0.00176984 0 0)
(0.00181314 0 0)
(0.00185664 0 0)
(0.00190034 0 0)
(0.00194426 0 0)
(0.00198841 0 0)
(0.00203281 0 0)
(0.00207748 0 0)
(0.00212242 0 0)
(0.00216767 0 0)
(0.00221325 0 0)
(0.00225919 0 0)
(0.0023055 0 0)
(0.00235223 0 0)
(0.00239941 0 0)
(0.00244709 0 0)
(0.00249531 0 0)
(0.00254414 0 0)
(0.00259363 0 0)
(0.00264388 0 0)
(0.00269496 0 0)
(0.002747 0 0)
(0.00280014 0 0)
(0.00285453 0 0)
(0.0029104 0 0)
(0.00296799 0 0)
(0.00302765 0 0)
(0.00308981 0 0)
(0.00315503 0 0)
(0.00322408 0 0)
(0.00329801 0 0)
(0.00337831 0 0)
(0.00346718 0 0)
(0.00356796 0 0)
(0.003686 0 0)
(0.00383048 0 0)
(0.00401846 0 0)
(0.00428562 0 0)
(0.00472074 0 0)
(0.00561469 0 0)
(0.00828776 0 0)
(0.0123022 0 0)
(0.0142709 0 0)
(0.0142799 0 0)
(0.0142799 0 0)
(0.0142799 0 0)
(0.0142799 0 0)
(0.0142799 0 0)
(0.0142799 0 0)
(0.0142799 0 0)
(0.0142799 0 0)
(0.0142799 0 0)
(0.0142799 0 0)
(0.0142799 0 0)
(0.0142799 0 0)
(0.0142799 0 0)
(0.0142799 0 0)
(0.0142799 0 0)
)
;

boundaryField
{
    inlet
    {
        type            fixedValue;
        value           uniform (0 0 0);
    }
    outlet
    {
        type            zeroGradient;
    }
    yzfaces
    {
        type            empty;
    }
}


// ************************************************************************* //
