/*--------------------------------*- C++ -*----------------------------------*\
  =========                 |
  \\      /  F ield         | OpenFOAM: The Open Source CFD Toolbox
   \\    /   O peration     | Website:  https://openfoam.org
    \\  /    A nd           | Version:  10
     \\/     M anipulation  |
\*---------------------------------------------------------------------------*/
FoamFile
{
    format      ascii;
    class       volVectorField;
    location    "0.775";
    object      Ub;
}
// * * * * * * * * * * * * * * * * * * * * * * * * * * * * * * * * * * * * * //

dimensions      [0 1 -1 0 0 0 0];

internalField   nonuniform List<vector> 
100
(
(2.63261e-05 0 0)
(8.00144e-05 0 0)
(0.000134995 0 0)
(0.000190277 0 0)
(0.000245577 0 0)
(0.000300799 0 0)
(0.000355912 0 0)
(0.000410913 0 0)
(0.000465811 0 0)
(0.000520622 0 0)
(0.000575363 0 0)
(0.000630052 0 0)
(0.000684707 0 0)
(0.000739348 0 0)
(0.000793991 0 0)
(0.000848654 0 0)
(0.000903355 0 0)
(0.000958109 0 0)
(0.00101293 0 0)
(0.00106785 0 0)
(0.00112286 0 0)
(0.00117799 0 0)
(0.00123326 0 0)
(0.00128869 0 0)
(0.00134428 0 0)
(0.00140006 0 0)
(0.00145604 0 0)
(0.00151225 0 0)
(0.00156871 0 0)
(0.00162543 0 0)
(0.00168244 0 0)
(0.00173977 0 0)
(0.00179743 0 0)
(0.00185547 0 0)
(0.00191391 0 0)
(0.00197279 0 0)
(0.00203214 0 0)
(0.00209202 0 0)
(0.00215248 0 0)
(0.00221357 0 0)
(0.00227536 0 0)
(0.00233793 0 0)
(0.00240138 0 0)
(0.00246582 0 0)
(0.00253138 0 0)
(0.00259822 0 0)
(0.00266655 0 0)
(0.00273662 0 0)
(0.00280874 0 0)
(0.00288333 0 0)
(0.00296093 0 0)
(0.00304224 0 0)
(0.00312827 0 0)
(0.00322039 0 0)
(0.00332063 0 0)
(0.00343204 0 0)
(0.00355948 0 0)
(0.00371113 0 0)
(0.00390194 0 0)
(0.00416237 0 0)
(0.00456521 0 0)
(0.00533376 0 0)
(0.00745382 0 0)
(0.0116136 0 0)
(0.0142265 0 0)
(0.0142813 0 0)
(0.0142813 0 0)
(0.0142813 0 0)
(0.0142813 0 0)
(0.0142813 0 0)
(0.0142813 0 0)
(0.0142813 0 0)
(0.0142813 0 0)
(0.0142813 0 0)
(0.0142813 0 0)
(0.0142813 0 0)
(0.0142813 0 0)
(0.0142813 0 0)
(0.0142813 0 0)
(0.0142813 0 0)
(0.0142813 0 0)
(0.0142813 0 0)
(0.0142813 0 0)
(0.0142813 0 0)
(0.0142813 0 0)
(0.0142813 0 0)
(0.0142813 0 0)
(0.0142813 0 0)
(0.0142813 0 0)
(0.0142813 0 0)
(0.0142813 0 0)
(0.0142813 0 0)
(0.0142813 0 0)
(0.0142813 0 0)
(0.0142813 0 0)
(0.0142813 0 0)
(0.0142813 0 0)
(0.0142813 0 0)
(0.0142813 0 0)
(0.0142813 0 0)
)
;

boundaryField
{
    inlet
    {
        type            fixedValue;
        value           uniform (0 0 0);
    }
    outlet
    {
        type            zeroGradient;
    }
    yzfaces
    {
        type            empty;
    }
}


// ************************************************************************* //
