/*--------------------------------*- C++ -*----------------------------------*\
  =========                 |
  \\      /  F ield         | OpenFOAM: The Open Source CFD Toolbox
   \\    /   O peration     | Website:  https://openfoam.org
    \\  /    A nd           | Version:  10
     \\/     M anipulation  |
\*---------------------------------------------------------------------------*/
FoamFile
{
    format      ascii;
    class       volVectorField;
    location    "1.08";
    object      Ub;
}
// * * * * * * * * * * * * * * * * * * * * * * * * * * * * * * * * * * * * * //

dimensions      [0 1 -1 0 0 0 0];

internalField   nonuniform List<vector> 
100
(
(1.85074e-05 0 0)
(5.64746e-05 0 0)
(9.56924e-05 0 0)
(0.000135309 0 0)
(0.000175047 0 0)
(0.000214794 0 0)
(0.0002545 0 0)
(0.000294142 0 0)
(0.000333712 0 0)
(0.000373209 0 0)
(0.000412637 0 0)
(0.000451999 0 0)
(0.000491303 0 0)
(0.000530555 0 0)
(0.000569764 0 0)
(0.000608935 0 0)
(0.000648076 0 0)
(0.000687194 0 0)
(0.000726296 0 0)
(0.000765389 0 0)
(0.000804479 0 0)
(0.000843572 0 0)
(0.000882676 0 0)
(0.000921795 0 0)
(0.000960936 0 0)
(0.0010001 0 0)
(0.00103931 0 0)
(0.00107855 0 0)
(0.00111783 0 0)
(0.00115717 0 0)
(0.00119656 0 0)
(0.00123602 0 0)
(0.00127554 0 0)
(0.00131514 0 0)
(0.00135481 0 0)
(0.00139457 0 0)
(0.00143442 0 0)
(0.00147437 0 0)
(0.00151443 0 0)
(0.00155459 0 0)
(0.00159487 0 0)
(0.00163527 0 0)
(0.00167581 0 0)
(0.00171649 0 0)
(0.00175731 0 0)
(0.00179829 0 0)
(0.00183944 0 0)
(0.00188076 0 0)
(0.00192227 0 0)
(0.00196398 0 0)
(0.0020059 0 0)
(0.00204804 0 0)
(0.00209042 0 0)
(0.00213306 0 0)
(0.00217597 0 0)
(0.00221917 0 0)
(0.00226268 0 0)
(0.00230654 0 0)
(0.00235075 0 0)
(0.00239537 0 0)
(0.00244042 0 0)
(0.00248593 0 0)
(0.00253197 0 0)
(0.00257859 0 0)
(0.00262583 0 0)
(0.00267379 0 0)
(0.00272255 0 0)
(0.00277222 0 0)
(0.00282291 0 0)
(0.0028748 0 0)
(0.00292807 0 0)
(0.00298295 0 0)
(0.00303977 0 0)
(0.00309891 0 0)
(0.00316088 0 0)
(0.00322637 0 0)
(0.00329633 0 0)
(0.00337207 0 0)
(0.00345549 0 0)
(0.00354946 0 0)
(0.00365849 0 0)
(0.00379011 0 0)
(0.00395787 0 0)
(0.00418887 0 0)
(0.00454594 0 0)
(0.00521299 0 0)
(0.00696177 0 0)
(0.0111079 0 0)
(0.0141153 0 0)
(0.0142795 0 0)
(0.0142795 0 0)
(0.0142795 0 0)
(0.0142795 0 0)
(0.0142795 0 0)
(0.0142795 0 0)
(0.0142795 0 0)
(0.0142795 0 0)
(0.0142795 0 0)
(0.0142795 0 0)
(0.0142795 0 0)
)
;

boundaryField
{
    inlet
    {
        type            fixedValue;
        value           uniform (0 0 0);
    }
    outlet
    {
        type            zeroGradient;
    }
    yzfaces
    {
        type            empty;
    }
}


// ************************************************************************* //
