/*--------------------------------*- C++ -*----------------------------------*\
  =========                 |
  \\      /  F ield         | OpenFOAM: The Open Source CFD Toolbox
   \\    /   O peration     | Website:  https://openfoam.org
    \\  /    A nd           | Version:  10
     \\/     M anipulation  |
\*---------------------------------------------------------------------------*/
FoamFile
{
    format      ascii;
    class       volVectorField;
    location    "1.155";
    object      Ua;
}
// * * * * * * * * * * * * * * * * * * * * * * * * * * * * * * * * * * * * * //

dimensions      [0 1 -1 0 0 0 0];

internalField   nonuniform List<vector> 
100
(
(0.00712234 0 0)
(0.0142265 0 0)
(0.0141899 0 0)
(0.0141529 0 0)
(0.0141157 0 0)
(0.0140785 0 0)
(0.0140414 0 0)
(0.0140043 0 0)
(0.0139673 0 0)
(0.0139303 0 0)
(0.0138934 0 0)
(0.0138565 0 0)
(0.0138197 0 0)
(0.013783 0 0)
(0.0137463 0 0)
(0.0137097 0 0)
(0.0136731 0 0)
(0.0136365 0 0)
(0.0135999 0 0)
(0.0135634 0 0)
(0.0135268 0 0)
(0.0134903 0 0)
(0.0134538 0 0)
(0.0134172 0 0)
(0.0133807 0 0)
(0.0133441 0 0)
(0.0133075 0 0)
(0.0132709 0 0)
(0.0132343 0 0)
(0.0131976 0 0)
(0.0131609 0 0)
(0.0131242 0 0)
(0.0130874 0 0)
(0.0130505 0 0)
(0.0130136 0 0)
(0.0129767 0 0)
(0.0129396 0 0)
(0.0129025 0 0)
(0.0128653 0 0)
(0.0128281 0 0)
(0.0127907 0 0)
(0.0127533 0 0)
(0.0127158 0 0)
(0.0126782 0 0)
(0.0126404 0 0)
(0.0126026 0 0)
(0.0125646 0 0)
(0.0125265 0 0)
(0.0124883 0 0)
(0.0124499 0 0)
(0.0124114 0 0)
(0.0123727 0 0)
(0.0123339 0 0)
(0.0122949 0 0)
(0.0122557 0 0)
(0.0122163 0 0)
(0.0121767 0 0)
(0.0121369 0 0)
(0.0120968 0 0)
(0.0120565 0 0)
(0.012016 0 0)
(0.0119751 0 0)
(0.011934 0 0)
(0.0118925 0 0)
(0.0118506 0 0)
(0.0118083 0 0)
(0.0117657 0 0)
(0.0117225 0 0)
(0.0116789 0 0)
(0.0116347 0 0)
(0.0115898 0 0)
(0.0115442 0 0)
(0.0114979 0 0)
(0.0114506 0 0)
(0.0114023 0 0)
(0.0113529 0 0)
(0.011302 0 0)
(0.0112495 0 0)
(0.0111951 0 0)
(0.0111383 0 0)
(0.0110786 0 0)
(0.0110154 0 0)
(0.0109477 0 0)
(0.0108741 0 0)
(0.0107927 0 0)
(0.0107004 0 0)
(0.0105928 0 0)
(0.0104618 0 0)
(0.0102935 0 0)
(0.0100592 0 0)
(0.009692 0 0)
(0.00899183 0 0)
(0.00709922 0 0)
(0.00294324 0 0)
(0.000104237 0 0)
(3.71549e-11 0 0)
(0 0 0)
(0 0 0)
(0 0 0)
(0 0 0)
)
;

boundaryField
{
    inlet
    {
        type            fixedValue;
        value           uniform (0 0 0);
    }
    outlet
    {
        type            zeroGradient;
    }
    yzfaces
    {
        type            empty;
    }
}


// ************************************************************************* //
