/*--------------------------------*- C++ -*----------------------------------*\
  =========                 |
  \\      /  F ield         | OpenFOAM: The Open Source CFD Toolbox
   \\    /   O peration     | Website:  https://openfoam.org
    \\  /    A nd           | Version:  10
     \\/     M anipulation  |
\*---------------------------------------------------------------------------*/
FoamFile
{
    format      ascii;
    class       volVectorField;
    location    "1.145";
    object      Ua;
}
// * * * * * * * * * * * * * * * * * * * * * * * * * * * * * * * * * * * * * //

dimensions      [0 1 -1 0 0 0 0];

internalField   nonuniform List<vector> 
100
(
(0.0071222 0 0)
(0.0142261 0 0)
(0.0141892 0 0)
(0.0141518 0 0)
(0.0141143 0 0)
(0.0140768 0 0)
(0.0140393 0 0)
(0.0140019 0 0)
(0.0139646 0 0)
(0.0139273 0 0)
(0.0138901 0 0)
(0.0138529 0 0)
(0.0138158 0 0)
(0.0137787 0 0)
(0.0137417 0 0)
(0.0137048 0 0)
(0.0136678 0 0)
(0.0136309 0 0)
(0.013594 0 0)
(0.0135572 0 0)
(0.0135203 0 0)
(0.0134835 0 0)
(0.0134466 0 0)
(0.0134097 0 0)
(0.0133729 0 0)
(0.013336 0 0)
(0.0132991 0 0)
(0.0132621 0 0)
(0.0132252 0 0)
(0.0131882 0 0)
(0.0131511 0 0)
(0.013114 0 0)
(0.0130769 0 0)
(0.0130397 0 0)
(0.0130025 0 0)
(0.0129652 0 0)
(0.0129278 0 0)
(0.0128903 0 0)
(0.0128528 0 0)
(0.0128152 0 0)
(0.0127775 0 0)
(0.0127397 0 0)
(0.0127018 0 0)
(0.0126638 0 0)
(0.0126256 0 0)
(0.0125874 0 0)
(0.0125491 0 0)
(0.0125106 0 0)
(0.0124719 0 0)
(0.0124332 0 0)
(0.0123942 0 0)
(0.0123551 0 0)
(0.0123159 0 0)
(0.0122764 0 0)
(0.0122368 0 0)
(0.0121969 0 0)
(0.0121569 0 0)
(0.0121166 0 0)
(0.012076 0 0)
(0.0120352 0 0)
(0.0119941 0 0)
(0.0119527 0 0)
(0.011911 0 0)
(0.0118689 0 0)
(0.0118265 0 0)
(0.0117836 0 0)
(0.0117402 0 0)
(0.0116964 0 0)
(0.011652 0 0)
(0.011607 0 0)
(0.0115612 0 0)
(0.0115147 0 0)
(0.0114674 0 0)
(0.011419 0 0)
(0.0113695 0 0)
(0.0113186 0 0)
(0.0112662 0 0)
(0.0112118 0 0)
(0.0111553 0 0)
(0.011096 0 0)
(0.0110332 0 0)
(0.0109662 0 0)
(0.0108937 0 0)
(0.0108137 0 0)
(0.0107238 0 0)
(0.0106195 0 0)
(0.010494 0 0)
(0.0103348 0 0)
(0.0101176 0 0)
(0.00978729 0 0)
(0.00918877 0 0)
(0.00770605 0 0)
(0.00368136 0 0)
(0.000372025 0 0)
(4.64388e-09 0 0)
(0 0 0)
(0 0 0)
(0 0 0)
(0 0 0)
(0 0 0)
)
;

boundaryField
{
    inlet
    {
        type            fixedValue;
        value           uniform (0 0 0);
    }
    outlet
    {
        type            zeroGradient;
    }
    yzfaces
    {
        type            empty;
    }
}


// ************************************************************************* //
