/*--------------------------------*- C++ -*----------------------------------*\
  =========                 |
  \\      /  F ield         | OpenFOAM: The Open Source CFD Toolbox
   \\    /   O peration     | Website:  https://openfoam.org
    \\  /    A nd           | Version:  10
     \\/     M anipulation  |
\*---------------------------------------------------------------------------*/
FoamFile
{
    format      ascii;
    class       volVectorField;
    location    "0.425";
    object      Ub;
}
// * * * * * * * * * * * * * * * * * * * * * * * * * * * * * * * * * * * * * //

dimensions      [0 1 -1 0 0 0 0];

internalField   nonuniform List<vector> 
100
(
(4.92519e-05 0 0)
(0.000148774 0 0)
(0.0002494 0 0)
(0.000350035 0 0)
(0.00045051 0 0)
(0.000550856 0 0)
(0.000651158 0 0)
(0.000751518 0 0)
(0.000852042 0 0)
(0.000952838 0 0)
(0.00105401 0 0)
(0.00115568 0 0)
(0.00125795 0 0)
(0.00136094 0 0)
(0.00146479 0 0)
(0.00156965 0 0)
(0.00167568 0 0)
(0.00178306 0 0)
(0.00189203 0 0)
(0.00200284 0 0)
(0.00211584 0 0)
(0.00223143 0 0)
(0.00235015 0 0)
(0.00247269 0 0)
(0.00259999 0 0)
(0.00273338 0 0)
(0.00287472 0 0)
(0.00302686 0 0)
(0.00319421 0 0)
(0.00338415 0 0)
(0.00360997 0 0)
(0.00389809 0 0)
(0.00430961 0 0)
(0.00502212 0 0)
(0.00677458 0 0)
(0.0109747 0 0)
(0.0140853 0 0)
(0.0142833 0 0)
(0.0142833 0 0)
(0.0142833 0 0)
(0.0142833 0 0)
(0.0142833 0 0)
(0.0142833 0 0)
(0.0142833 0 0)
(0.0142833 0 0)
(0.0142833 0 0)
(0.0142833 0 0)
(0.0142833 0 0)
(0.0142833 0 0)
(0.0142833 0 0)
(0.0142833 0 0)
(0.0142833 0 0)
(0.0142833 0 0)
(0.0142833 0 0)
(0.0142833 0 0)
(0.0142833 0 0)
(0.0142833 0 0)
(0.0142833 0 0)
(0.0142833 0 0)
(0.0142833 0 0)
(0.0142833 0 0)
(0.0142833 0 0)
(0.0142833 0 0)
(0.0142833 0 0)
(0.0142833 0 0)
(0.0142833 0 0)
(0.0142833 0 0)
(0.0142833 0 0)
(0.0142833 0 0)
(0.0142833 0 0)
(0.0142833 0 0)
(0.0142833 0 0)
(0.0142833 0 0)
(0.0142833 0 0)
(0.0142833 0 0)
(0.0142833 0 0)
(0.0142833 0 0)
(0.0142833 0 0)
(0.0142833 0 0)
(0.0142833 0 0)
(0.0142833 0 0)
(0.0142833 0 0)
(0.0142833 0 0)
(0.0142833 0 0)
(0.0142833 0 0)
(0.0142833 0 0)
(0.0142833 0 0)
(0.0142833 0 0)
(0.0142833 0 0)
(0.0142833 0 0)
(0.0142833 0 0)
(0.0142833 0 0)
(0.0142833 0 0)
(0.0142833 0 0)
(0.0142833 0 0)
(0.0142833 0 0)
(0.0142833 0 0)
(0.0142833 0 0)
(0.0142833 0 0)
(0.0142833 0 0)
)
;

boundaryField
{
    inlet
    {
        type            fixedValue;
        value           uniform (0 0 0);
    }
    outlet
    {
        type            zeroGradient;
    }
    yzfaces
    {
        type            empty;
    }
}


// ************************************************************************* //
