/*--------------------------------*- C++ -*----------------------------------*\
  =========                 |
  \\      /  F ield         | OpenFOAM: The Open Source CFD Toolbox
   \\    /   O peration     | Website:  https://openfoam.org
    \\  /    A nd           | Version:  10
     \\/     M anipulation  |
\*---------------------------------------------------------------------------*/
FoamFile
{
    format      ascii;
    class       volVectorField;
    location    "0.45";
    object      Ua;
}
// * * * * * * * * * * * * * * * * * * * * * * * * * * * * * * * * * * * * * //

dimensions      [0 1 -1 0 0 0 0];

internalField   nonuniform List<vector> 
100
(
(0.00709514 0 0)
(0.0141428 0 0)
(0.0140478 0 0)
(0.0139527 0 0)
(0.0138578 0 0)
(0.0137631 0 0)
(0.0136684 0 0)
(0.0135737 0 0)
(0.013479 0 0)
(0.013384 0 0)
(0.0132888 0 0)
(0.0131932 0 0)
(0.0130972 0 0)
(0.0130006 0 0)
(0.0129033 0 0)
(0.0128053 0 0)
(0.0127064 0 0)
(0.0126065 0 0)
(0.0125054 0 0)
(0.0124029 0 0)
(0.0122988 0 0)
(0.0121929 0 0)
(0.0120849 0 0)
(0.0119742 0 0)
(0.0118605 0 0)
(0.0117429 0 0)
(0.0116206 0 0)
(0.0114923 0 0)
(0.011356 0 0)
(0.0112089 0 0)
(0.0110466 0 0)
(0.0108617 0 0)
(0.0106409 0 0)
(0.0103575 0 0)
(0.00995007 0 0)
(0.00923958 0 0)
(0.00747923 0 0)
(0.00328168 0 0)
(0.000189805 0 0)
(3.34383e-10 0 0)
(0 0 0)
(0 0 0)
(0 0 0)
(0 0 0)
(0 0 0)
(0 0 0)
(0 0 0)
(0 0 0)
(0 0 0)
(0 0 0)
(0 0 0)
(0 0 0)
(0 0 0)
(0 0 0)
(0 0 0)
(0 0 0)
(0 0 0)
(0 0 0)
(0 0 0)
(0 0 0)
(0 0 0)
(0 0 0)
(0 0 0)
(0 0 0)
(0 0 0)
(0 0 0)
(0 0 0)
(0 0 0)
(0 0 0)
(0 0 0)
(0 0 0)
(0 0 0)
(0 0 0)
(0 0 0)
(0 0 0)
(0 0 0)
(0 0 0)
(0 0 0)
(0 0 0)
(0 0 0)
(0 0 0)
(0 0 0)
(0 0 0)
(0 0 0)
(0 0 0)
(0 0 0)
(0 0 0)
(0 0 0)
(0 0 0)
(0 0 0)
(0 0 0)
(0 0 0)
(0 0 0)
(0 0 0)
(0 0 0)
(0 0 0)
(0 0 0)
(0 0 0)
(0 0 0)
(0 0 0)
)
;

boundaryField
{
    inlet
    {
        type            fixedValue;
        value           uniform (0 0 0);
    }
    outlet
    {
        type            zeroGradient;
    }
    yzfaces
    {
        type            empty;
    }
}


// ************************************************************************* //
