/*--------------------------------*- C++ -*----------------------------------*\
  =========                 |
  \\      /  F ield         | OpenFOAM: The Open Source CFD Toolbox
   \\    /   O peration     | Website:  https://openfoam.org
    \\  /    A nd           | Version:  10
     \\/     M anipulation  |
\*---------------------------------------------------------------------------*/
FoamFile
{
    format      ascii;
    class       volVectorField;
    location    "0.14";
    object      Ub;
}
// * * * * * * * * * * * * * * * * * * * * * * * * * * * * * * * * * * * * * //

dimensions      [0 1 -1 0 0 0 0];

internalField   nonuniform List<vector> 
100
(
(0.000153048 0 0)
(0.00046062 0 0)
(0.000771793 0 0)
(0.00108885 0 0)
(0.00141557 0 0)
(0.00175709 0 0)
(0.00212113 0 0)
(0.00252075 0 0)
(0.00298109 0 0)
(0.00355878 0 0)
(0.00441444 0 0)
(0.0061988 0 0)
(0.010542 0 0)
(0.0139566 0 0)
(0.0142849 0 0)
(0.0142849 0 0)
(0.0142849 0 0)
(0.0142849 0 0)
(0.0142849 0 0)
(0.0142849 0 0)
(0.0142849 0 0)
(0.0142849 0 0)
(0.0142849 0 0)
(0.0142849 0 0)
(0.0142849 0 0)
(0.0142849 0 0)
(0.0142849 0 0)
(0.0142849 0 0)
(0.0142849 0 0)
(0.0142849 0 0)
(0.0142849 0 0)
(0.0142849 0 0)
(0.0142849 0 0)
(0.0142849 0 0)
(0.0142849 0 0)
(0.0142849 0 0)
(0.0142849 0 0)
(0.0142849 0 0)
(0.0142849 0 0)
(0.0142849 0 0)
(0.0142849 0 0)
(0.0142849 0 0)
(0.0142849 0 0)
(0.0142849 0 0)
(0.0142849 0 0)
(0.0142849 0 0)
(0.0142849 0 0)
(0.0142849 0 0)
(0.0142849 0 0)
(0.0142849 0 0)
(0.0142849 0 0)
(0.0142849 0 0)
(0.0142849 0 0)
(0.0142849 0 0)
(0.0142849 0 0)
(0.0142849 0 0)
(0.0142849 0 0)
(0.0142849 0 0)
(0.0142849 0 0)
(0.0142849 0 0)
(0.0142849 0 0)
(0.0142849 0 0)
(0.0142849 0 0)
(0.0142849 0 0)
(0.0142849 0 0)
(0.0142849 0 0)
(0.0142849 0 0)
(0.0142849 0 0)
(0.0142849 0 0)
(0.0142849 0 0)
(0.0142849 0 0)
(0.0142849 0 0)
(0.0142849 0 0)
(0.0142849 0 0)
(0.0142849 0 0)
(0.0142849 0 0)
(0.0142849 0 0)
(0.0142849 0 0)
(0.0142849 0 0)
(0.0142849 0 0)
(0.0142849 0 0)
(0.0142849 0 0)
(0.0142849 0 0)
(0.0142849 0 0)
(0.0142849 0 0)
(0.0142849 0 0)
(0.0142849 0 0)
(0.0142849 0 0)
(0.0142849 0 0)
(0.0142849 0 0)
(0.0142849 0 0)
(0.0142849 0 0)
(0.0142849 0 0)
(0.0142849 0 0)
(0.0142849 0 0)
(0.0142849 0 0)
(0.0142849 0 0)
(0.0142849 0 0)
(0.0142849 0 0)
(0.0142849 0 0)
)
;

boundaryField
{
    inlet
    {
        type            fixedValue;
        value           uniform (0 0 0);
    }
    outlet
    {
        type            zeroGradient;
    }
    yzfaces
    {
        type            empty;
    }
}


// ************************************************************************* //
