/*--------------------------------*- C++ -*----------------------------------*\
  =========                 |
  \\      /  F ield         | OpenFOAM: The Open Source CFD Toolbox
   \\    /   O peration     | Website:  https://openfoam.org
    \\  /    A nd           | Version:  10
     \\/     M anipulation  |
\*---------------------------------------------------------------------------*/
FoamFile
{
    format      ascii;
    class       volVectorField;
    location    "0.625";
    object      Ua;
}
// * * * * * * * * * * * * * * * * * * * * * * * * * * * * * * * * * * * * * //

dimensions      [0 1 -1 0 0 0 0];

internalField   nonuniform List<vector> 
100
(
(0.00710808 0 0)
(0.0141821 0 0)
(0.0141138 0 0)
(0.0140453 0 0)
(0.0139768 0 0)
(0.0139085 0 0)
(0.0138403 0 0)
(0.0137722 0 0)
(0.0137042 0 0)
(0.0136363 0 0)
(0.0135684 0 0)
(0.0135005 0 0)
(0.0134325 0 0)
(0.0133645 0 0)
(0.0132963 0 0)
(0.013228 0 0)
(0.0131595 0 0)
(0.0130909 0 0)
(0.013022 0 0)
(0.0129528 0 0)
(0.0128833 0 0)
(0.0128134 0 0)
(0.0127432 0 0)
(0.0126725 0 0)
(0.0126013 0 0)
(0.0125297 0 0)
(0.0124574 0 0)
(0.0123845 0 0)
(0.0123108 0 0)
(0.0122364 0 0)
(0.012161 0 0)
(0.0120846 0 0)
(0.0120071 0 0)
(0.0119282 0 0)
(0.0118478 0 0)
(0.0117657 0 0)
(0.0116814 0 0)
(0.0115947 0 0)
(0.011505 0 0)
(0.0114115 0 0)
(0.0113133 0 0)
(0.0112092 0 0)
(0.0110971 0 0)
(0.0109741 0 0)
(0.0108356 0 0)
(0.0106738 0 0)
(0.0104748 0 0)
(0.0102102 0 0)
(0.00981388 0 0)
(0.0090884 0 0)
(0.00718794 0 0)
(0.00299796 0 0)
(0.000112925 0 0)
(4.88394e-11 0 0)
(0 0 0)
(0 0 0)
(0 0 0)
(0 0 0)
(0 0 0)
(0 0 0)
(0 0 0)
(0 0 0)
(0 0 0)
(0 0 0)
(0 0 0)
(0 0 0)
(0 0 0)
(0 0 0)
(0 0 0)
(0 0 0)
(0 0 0)
(0 0 0)
(0 0 0)
(0 0 0)
(0 0 0)
(0 0 0)
(0 0 0)
(0 0 0)
(0 0 0)
(0 0 0)
(0 0 0)
(0 0 0)
(0 0 0)
(0 0 0)
(0 0 0)
(0 0 0)
(0 0 0)
(0 0 0)
(0 0 0)
(0 0 0)
(0 0 0)
(0 0 0)
(0 0 0)
(0 0 0)
(0 0 0)
(0 0 0)
(0 0 0)
(0 0 0)
(0 0 0)
(0 0 0)
)
;

boundaryField
{
    inlet
    {
        type            fixedValue;
        value           uniform (0 0 0);
    }
    outlet
    {
        type            zeroGradient;
    }
    yzfaces
    {
        type            empty;
    }
}


// ************************************************************************* //
