/*--------------------------------*- C++ -*----------------------------------*\
  =========                 |
  \\      /  F ield         | OpenFOAM: The Open Source CFD Toolbox
   \\    /   O peration     | Website:  https://openfoam.org
    \\  /    A nd           | Version:  10
     \\/     M anipulation  |
\*---------------------------------------------------------------------------*/
FoamFile
{
    format      ascii;
    class       volVectorField;
    location    "0.67";
    object      Ub;
}
// * * * * * * * * * * * * * * * * * * * * * * * * * * * * * * * * * * * * * //

dimensions      [0 1 -1 0 0 0 0];

internalField   nonuniform List<vector> 
100
(
(3.06805e-05 0 0)
(9.30964e-05 0 0)
(0.000156792 0 0)
(0.000220727 0 0)
(0.000284626 0 0)
(0.000348408 0 0)
(0.000412058 0 0)
(0.000475588 0 0)
(0.000539018 0 0)
(0.000602376 0 0)
(0.00066569 0 0)
(0.000728987 0 0)
(0.000792294 0 0)
(0.00085564 0 0)
(0.00091905 0 0)
(0.00098255 0 0)
(0.00104617 0 0)
(0.00110993 0 0)
(0.00117385 0 0)
(0.00123798 0 0)
(0.00130232 0 0)
(0.00136691 0 0)
(0.00143179 0 0)
(0.00149697 0 0)
(0.00156249 0 0)
(0.00162839 0 0)
(0.00169471 0 0)
(0.00176148 0 0)
(0.00182875 0 0)
(0.00189658 0 0)
(0.00196501 0 0)
(0.00203412 0 0)
(0.00210398 0 0)
(0.00217468 0 0)
(0.00224632 0 0)
(0.00231903 0 0)
(0.00239293 0 0)
(0.00246823 0 0)
(0.00254513 0 0)
(0.0026239 0 0)
(0.0027049 0 0)
(0.00278857 0 0)
(0.0028755 0 0)
(0.0029665 0 0)
(0.00306265 0 0)
(0.00316553 0 0)
(0.00327744 0 0)
(0.00340191 0 0)
(0.00354467 0 0)
(0.00371558 0 0)
(0.00393329 0 0)
(0.00423755 0 0)
(0.00473016 0 0)
(0.00576109 0 0)
(0.00887893 0 0)
(0.0127779 0 0)
(0.0142799 0 0)
(0.0142819 0 0)
(0.0142819 0 0)
(0.0142819 0 0)
(0.0142819 0 0)
(0.0142819 0 0)
(0.0142819 0 0)
(0.0142819 0 0)
(0.0142819 0 0)
(0.0142819 0 0)
(0.0142819 0 0)
(0.0142819 0 0)
(0.0142819 0 0)
(0.0142819 0 0)
(0.0142819 0 0)
(0.0142819 0 0)
(0.0142819 0 0)
(0.0142819 0 0)
(0.0142819 0 0)
(0.0142819 0 0)
(0.0142819 0 0)
(0.0142819 0 0)
(0.0142819 0 0)
(0.0142819 0 0)
(0.0142819 0 0)
(0.0142819 0 0)
(0.0142819 0 0)
(0.0142819 0 0)
(0.0142819 0 0)
(0.0142819 0 0)
(0.0142819 0 0)
(0.0142819 0 0)
(0.0142819 0 0)
(0.0142819 0 0)
(0.0142819 0 0)
(0.0142819 0 0)
(0.0142819 0 0)
(0.0142819 0 0)
(0.0142819 0 0)
(0.0142819 0 0)
(0.0142819 0 0)
(0.0142819 0 0)
(0.0142819 0 0)
(0.0142819 0 0)
)
;

boundaryField
{
    inlet
    {
        type            fixedValue;
        value           uniform (0 0 0);
    }
    outlet
    {
        type            zeroGradient;
    }
    yzfaces
    {
        type            empty;
    }
}


// ************************************************************************* //
