/*--------------------------------*- C++ -*----------------------------------*\
  =========                 |
  \\      /  F ield         | OpenFOAM: The Open Source CFD Toolbox
   \\    /   O peration     | Website:  https://openfoam.org
    \\  /    A nd           | Version:  10
     \\/     M anipulation  |
\*---------------------------------------------------------------------------*/
FoamFile
{
    format      ascii;
    class       volVectorField;
    location    "0.645";
    object      Ub;
}
// * * * * * * * * * * * * * * * * * * * * * * * * * * * * * * * * * * * * * //

dimensions      [0 1 -1 0 0 0 0];

internalField   nonuniform List<vector> 
100
(
(3.19274e-05 0 0)
(9.68399e-05 0 0)
(0.000163025 0 0)
(0.000229432 0 0)
(0.000295788 0 0)
(0.000362019 0 0)
(0.000428113 0 0)
(0.000494087 0 0)
(0.000559966 0 0)
(0.000625782 0 0)
(0.000691563 0 0)
(0.000757343 0 0)
(0.00082315 0 0)
(0.000889016 0 0)
(0.000954971 0 0)
(0.00102104 0 0)
(0.00108726 0 0)
(0.00115365 0 0)
(0.00122025 0 0)
(0.00128709 0 0)
(0.00135419 0 0)
(0.00142159 0 0)
(0.00148933 0 0)
(0.00155743 0 0)
(0.00162595 0 0)
(0.00169492 0 0)
(0.00176439 0 0)
(0.00183442 0 0)
(0.00190505 0 0)
(0.00197637 0 0)
(0.00204844 0 0)
(0.00212135 0 0)
(0.00219521 0 0)
(0.00227013 0 0)
(0.00234627 0 0)
(0.0024238 0 0)
(0.00250294 0 0)
(0.00258397 0 0)
(0.00266723 0 0)
(0.00275316 0 0)
(0.00284236 0 0)
(0.00293563 0 0)
(0.00303404 0 0)
(0.00313917 0 0)
(0.0032533 0 0)
(0.00337994 0 0)
(0.00352476 0 0)
(0.00369755 0 0)
(0.00391675 0 0)
(0.00422161 0 0)
(0.00471231 0 0)
(0.00573131 0 0)
(0.00880291 0 0)
(0.0127214 0 0)
(0.0142796 0 0)
(0.014282 0 0)
(0.014282 0 0)
(0.014282 0 0)
(0.014282 0 0)
(0.014282 0 0)
(0.014282 0 0)
(0.014282 0 0)
(0.014282 0 0)
(0.014282 0 0)
(0.014282 0 0)
(0.014282 0 0)
(0.014282 0 0)
(0.014282 0 0)
(0.014282 0 0)
(0.014282 0 0)
(0.014282 0 0)
(0.014282 0 0)
(0.014282 0 0)
(0.014282 0 0)
(0.014282 0 0)
(0.014282 0 0)
(0.014282 0 0)
(0.014282 0 0)
(0.014282 0 0)
(0.014282 0 0)
(0.014282 0 0)
(0.014282 0 0)
(0.014282 0 0)
(0.014282 0 0)
(0.014282 0 0)
(0.014282 0 0)
(0.014282 0 0)
(0.014282 0 0)
(0.014282 0 0)
(0.014282 0 0)
(0.014282 0 0)
(0.014282 0 0)
(0.014282 0 0)
(0.014282 0 0)
(0.014282 0 0)
(0.014282 0 0)
(0.014282 0 0)
(0.014282 0 0)
(0.014282 0 0)
(0.014282 0 0)
)
;

boundaryField
{
    inlet
    {
        type            fixedValue;
        value           uniform (0 0 0);
    }
    outlet
    {
        type            zeroGradient;
    }
    yzfaces
    {
        type            empty;
    }
}


// ************************************************************************* //
