/*--------------------------------*- C++ -*----------------------------------*\
  =========                 |
  \\      /  F ield         | OpenFOAM: The Open Source CFD Toolbox
   \\    /   O peration     | Website:  https://openfoam.org
    \\  /    A nd           | Version:  10
     \\/     M anipulation  |
\*---------------------------------------------------------------------------*/
FoamFile
{
    format      ascii;
    class       volVectorField;
    location    "1.115";
    object      Ua;
}
// * * * * * * * * * * * * * * * * * * * * * * * * * * * * * * * * * * * * * //

dimensions      [0 1 -1 0 0 0 0];

internalField   nonuniform List<vector> 
100
(
(0.00712179 0 0)
(0.0142247 0 0)
(0.0141868 0 0)
(0.0141484 0 0)
(0.0141099 0 0)
(0.0140714 0 0)
(0.014033 0 0)
(0.0139945 0 0)
(0.0139562 0 0)
(0.0139179 0 0)
(0.0138797 0 0)
(0.0138416 0 0)
(0.0138035 0 0)
(0.0137654 0 0)
(0.0137275 0 0)
(0.0136895 0 0)
(0.0136516 0 0)
(0.0136137 0 0)
(0.0135758 0 0)
(0.013538 0 0)
(0.0135001 0 0)
(0.0134622 0 0)
(0.0134244 0 0)
(0.0133865 0 0)
(0.0133486 0 0)
(0.0133107 0 0)
(0.0132728 0 0)
(0.0132348 0 0)
(0.0131968 0 0)
(0.0131588 0 0)
(0.0131207 0 0)
(0.0130826 0 0)
(0.0130444 0 0)
(0.0130061 0 0)
(0.0129678 0 0)
(0.0129294 0 0)
(0.0128909 0 0)
(0.0128523 0 0)
(0.0128137 0 0)
(0.0127749 0 0)
(0.0127361 0 0)
(0.0126971 0 0)
(0.0126581 0 0)
(0.0126189 0 0)
(0.0125796 0 0)
(0.0125401 0 0)
(0.0125005 0 0)
(0.0124608 0 0)
(0.0124209 0 0)
(0.0123808 0 0)
(0.0123406 0 0)
(0.0123002 0 0)
(0.0122595 0 0)
(0.0122187 0 0)
(0.0121776 0 0)
(0.0121363 0 0)
(0.0120948 0 0)
(0.0120529 0 0)
(0.0120108 0 0)
(0.0119684 0 0)
(0.0119256 0 0)
(0.0118824 0 0)
(0.0118389 0 0)
(0.0117949 0 0)
(0.0117504 0 0)
(0.0117054 0 0)
(0.0116598 0 0)
(0.0116136 0 0)
(0.0115666 0 0)
(0.0115189 0 0)
(0.0114702 0 0)
(0.0114204 0 0)
(0.0113694 0 0)
(0.011317 0 0)
(0.0112629 0 0)
(0.0112068 0 0)
(0.0111483 0 0)
(0.0110868 0 0)
(0.0110216 0 0)
(0.0109517 0 0)
(0.0108756 0 0)
(0.0107913 0 0)
(0.0106956 0 0)
(0.0105834 0 0)
(0.0104462 0 0)
(0.0102683 0 0)
(0.0100172 0 0)
(0.00961431 0 0)
(0.00881259 0 0)
(0.00650216 0 0)
(0.00239851 0 0)
(2.85256e-05 0 0)
(3.28701e-13 0 0)
(0 0 0)
(0 0 0)
(0 0 0)
(0 0 0)
(0 0 0)
(0 0 0)
(0 0 0)
)
;

boundaryField
{
    inlet
    {
        type            fixedValue;
        value           uniform (0 0 0);
    }
    outlet
    {
        type            zeroGradient;
    }
    yzfaces
    {
        type            empty;
    }
}


// ************************************************************************* //
