/*--------------------------------*- C++ -*----------------------------------*\
  =========                 |
  \\      /  F ield         | OpenFOAM: The Open Source CFD Toolbox
   \\    /   O peration     | Website:  https://openfoam.org
    \\  /    A nd           | Version:  10
     \\/     M anipulation  |
\*---------------------------------------------------------------------------*/
FoamFile
{
    format      ascii;
    class       volVectorField;
    location    "0.295";
    object      Ub;
}
// * * * * * * * * * * * * * * * * * * * * * * * * * * * * * * * * * * * * * //

dimensions      [0 1 -1 0 0 0 0];

internalField   nonuniform List<vector> 
100
(
(7.16591e-05 0 0)
(0.000215868 0 0)
(0.000360978 0 0)
(0.000506087 0 0)
(0.000651292 0 0)
(0.000796868 0 0)
(0.000943133 0 0)
(0.00109043 0 0)
(0.00123911 0 0)
(0.00138957 0 0)
(0.00154228 0 0)
(0.00169777 0 0)
(0.00185669 0 0)
(0.00201991 0 0)
(0.00218854 0 0)
(0.00236414 0 0)
(0.00254896 0 0)
(0.00274636 0 0)
(0.00296175 0 0)
(0.00320433 0 0)
(0.00349125 0 0)
(0.0038585 0 0)
(0.00439597 0 0)
(0.00540045 0 0)
(0.00822528 0 0)
(0.0123209 0 0)
(0.0142763 0 0)
(0.014284 0 0)
(0.014284 0 0)
(0.014284 0 0)
(0.014284 0 0)
(0.014284 0 0)
(0.014284 0 0)
(0.014284 0 0)
(0.014284 0 0)
(0.014284 0 0)
(0.014284 0 0)
(0.014284 0 0)
(0.014284 0 0)
(0.014284 0 0)
(0.014284 0 0)
(0.014284 0 0)
(0.014284 0 0)
(0.014284 0 0)
(0.014284 0 0)
(0.014284 0 0)
(0.014284 0 0)
(0.014284 0 0)
(0.014284 0 0)
(0.014284 0 0)
(0.014284 0 0)
(0.014284 0 0)
(0.014284 0 0)
(0.014284 0 0)
(0.014284 0 0)
(0.014284 0 0)
(0.014284 0 0)
(0.014284 0 0)
(0.014284 0 0)
(0.014284 0 0)
(0.014284 0 0)
(0.014284 0 0)
(0.014284 0 0)
(0.014284 0 0)
(0.014284 0 0)
(0.014284 0 0)
(0.014284 0 0)
(0.014284 0 0)
(0.014284 0 0)
(0.014284 0 0)
(0.014284 0 0)
(0.014284 0 0)
(0.014284 0 0)
(0.014284 0 0)
(0.014284 0 0)
(0.014284 0 0)
(0.014284 0 0)
(0.014284 0 0)
(0.014284 0 0)
(0.014284 0 0)
(0.014284 0 0)
(0.014284 0 0)
(0.014284 0 0)
(0.014284 0 0)
(0.014284 0 0)
(0.014284 0 0)
(0.014284 0 0)
(0.014284 0 0)
(0.014284 0 0)
(0.014284 0 0)
(0.014284 0 0)
(0.014284 0 0)
(0.014284 0 0)
(0.014284 0 0)
(0.014284 0 0)
(0.014284 0 0)
(0.014284 0 0)
(0.014284 0 0)
(0.014284 0 0)
(0.014284 0 0)
)
;

boundaryField
{
    inlet
    {
        type            fixedValue;
        value           uniform (0 0 0);
    }
    outlet
    {
        type            zeroGradient;
    }
    yzfaces
    {
        type            empty;
    }
}


// ************************************************************************* //
