/*--------------------------------*- C++ -*----------------------------------*\
  =========                 |
  \\      /  F ield         | OpenFOAM: The Open Source CFD Toolbox
   \\    /   O peration     | Website:  https://openfoam.org
    \\  /    A nd           | Version:  10
     \\/     M anipulation  |
\*---------------------------------------------------------------------------*/
FoamFile
{
    format      ascii;
    class       volVectorField;
    location    "0.955";
    object      Ua;
}
// * * * * * * * * * * * * * * * * * * * * * * * * * * * * * * * * * * * * * //

dimensions      [0 1 -1 0 0 0 0];

internalField   nonuniform List<vector> 
100
(
(0.00711903 0 0)
(0.014216 0 0)
(0.0141715 0 0)
(0.0141267 0 0)
(0.0140817 0 0)
(0.0140368 0 0)
(0.013992 0 0)
(0.0139472 0 0)
(0.0139026 0 0)
(0.013858 0 0)
(0.0138135 0 0)
(0.013769 0 0)
(0.0137246 0 0)
(0.0136803 0 0)
(0.013636 0 0)
(0.0135917 0 0)
(0.0135475 0 0)
(0.0135032 0 0)
(0.0134589 0 0)
(0.0134147 0 0)
(0.0133704 0 0)
(0.0133261 0 0)
(0.0132817 0 0)
(0.0132373 0 0)
(0.0131929 0 0)
(0.0131483 0 0)
(0.0131037 0 0)
(0.0130591 0 0)
(0.0130143 0 0)
(0.0129694 0 0)
(0.0129245 0 0)
(0.0128794 0 0)
(0.0128342 0 0)
(0.0127889 0 0)
(0.0127434 0 0)
(0.0126978 0 0)
(0.012652 0 0)
(0.012606 0 0)
(0.0125598 0 0)
(0.0125135 0 0)
(0.0124669 0 0)
(0.0124201 0 0)
(0.012373 0 0)
(0.0123257 0 0)
(0.0122781 0 0)
(0.0122303 0 0)
(0.012182 0 0)
(0.0121335 0 0)
(0.0120846 0 0)
(0.0120352 0 0)
(0.0119854 0 0)
(0.0119352 0 0)
(0.0118844 0 0)
(0.011833 0 0)
(0.0117809 0 0)
(0.0117282 0 0)
(0.0116746 0 0)
(0.0116201 0 0)
(0.0115646 0 0)
(0.0115079 0 0)
(0.0114498 0 0)
(0.0113901 0 0)
(0.0113284 0 0)
(0.0112645 0 0)
(0.0111978 0 0)
(0.0111276 0 0)
(0.011053 0 0)
(0.0109729 0 0)
(0.0108852 0 0)
(0.0107874 0 0)
(0.010675 0 0)
(0.0105411 0 0)
(0.0103729 0 0)
(0.0101455 0 0)
(0.00980199 0 0)
(0.00918081 0 0)
(0.00763126 0 0)
(0.00355616 0 0)
(0.000310139 0 0)
(2.26809e-09 0 0)
(0 0 0)
(0 0 0)
(0 0 0)
(0 0 0)
(0 0 0)
(0 0 0)
(0 0 0)
(0 0 0)
(0 0 0)
(0 0 0)
(0 0 0)
(0 0 0)
(0 0 0)
(0 0 0)
(0 0 0)
(0 0 0)
(0 0 0)
(0 0 0)
(0 0 0)
(0 0 0)
)
;

boundaryField
{
    inlet
    {
        type            fixedValue;
        value           uniform (0 0 0);
    }
    outlet
    {
        type            zeroGradient;
    }
    yzfaces
    {
        type            empty;
    }
}


// ************************************************************************* //
