/*--------------------------------*- C++ -*----------------------------------*\
  =========                 |
  \\      /  F ield         | OpenFOAM: The Open Source CFD Toolbox
   \\    /   O peration     | Website:  https://openfoam.org
    \\  /    A nd           | Version:  10
     \\/     M anipulation  |
\*---------------------------------------------------------------------------*/
FoamFile
{
    format      ascii;
    class       volVectorField;
    location    "1.01";
    object      Ub;
}
// * * * * * * * * * * * * * * * * * * * * * * * * * * * * * * * * * * * * * //

dimensions      [0 1 -1 0 0 0 0];

internalField   nonuniform List<vector> 
100
(
(1.98805e-05 0 0)
(6.06143e-05 0 0)
(0.000102614 0 0)
(0.000144998 0 0)
(0.000187486 0 0)
(0.000229966 0 0)
(0.000272391 0 0)
(0.000314742 0 0)
(0.000357012 0 0)
(0.000399203 0 0)
(0.000441321 0 0)
(0.000483373 0 0)
(0.000525366 0 0)
(0.000567309 0 0)
(0.000609212 0 0)
(0.000651082 0 0)
(0.000692928 0 0)
(0.000734759 0 0)
(0.000776583 0 0)
(0.000818408 0 0)
(0.00086024 0 0)
(0.000902089 0 0)
(0.000943961 0 0)
(0.000985864 0 0)
(0.0010278 0 0)
(0.00106979 0 0)
(0.00111183 0 0)
(0.00115392 0 0)
(0.00119609 0 0)
(0.00123832 0 0)
(0.00128064 0 0)
(0.00132304 0 0)
(0.00136553 0 0)
(0.00140813 0 0)
(0.00145084 0 0)
(0.00149367 0 0)
(0.00153662 0 0)
(0.0015797 0 0)
(0.00162293 0 0)
(0.00166631 0 0)
(0.00170986 0 0)
(0.00175357 0 0)
(0.00179747 0 0)
(0.00184156 0 0)
(0.00188586 0 0)
(0.00193038 0 0)
(0.00197514 0 0)
(0.00202015 0 0)
(0.00206543 0 0)
(0.00211099 0 0)
(0.00215687 0 0)
(0.00220308 0 0)
(0.00224965 0 0)
(0.00229661 0 0)
(0.00234399 0 0)
(0.00239184 0 0)
(0.00244019 0 0)
(0.0024891 0 0)
(0.00253862 0 0)
(0.00258883 0 0)
(0.00263981 0 0)
(0.00269165 0 0)
(0.00274448 0 0)
(0.00279843 0 0)
(0.00285368 0 0)
(0.00291044 0 0)
(0.002969 0 0)
(0.0030297 0 0)
(0.00309298 0 0)
(0.00315946 0 0)
(0.00322994 0 0)
(0.00330555 0 0)
(0.00338789 0 0)
(0.00347931 0 0)
(0.00358345 0 0)
(0.0037062 0 0)
(0.0038578 0 0)
(0.00405762 0 0)
(0.00434736 0 0)
(0.00483508 0 0)
(0.00589994 0 0)
(0.00917085 0 0)
(0.012984 0 0)
(0.014279 0 0)
(0.0142799 0 0)
(0.0142799 0 0)
(0.0142799 0 0)
(0.0142799 0 0)
(0.0142799 0 0)
(0.0142799 0 0)
(0.0142799 0 0)
(0.0142799 0 0)
(0.0142799 0 0)
(0.0142799 0 0)
(0.0142799 0 0)
(0.0142799 0 0)
(0.0142799 0 0)
(0.0142799 0 0)
(0.0142799 0 0)
(0.0142799 0 0)
)
;

boundaryField
{
    inlet
    {
        type            fixedValue;
        value           uniform (0 0 0);
    }
    outlet
    {
        type            zeroGradient;
    }
    yzfaces
    {
        type            empty;
    }
}


// ************************************************************************* //
