/*--------------------------------*- C++ -*----------------------------------*\
  =========                 |
  \\      /  F ield         | OpenFOAM: The Open Source CFD Toolbox
   \\    /   O peration     | Website:  https://openfoam.org
    \\  /    A nd           | Version:  10
     \\/     M anipulation  |
\*---------------------------------------------------------------------------*/
FoamFile
{
    format      ascii;
    class       volVectorField;
    location    "0.87";
    object      Ub;
}
// * * * * * * * * * * * * * * * * * * * * * * * * * * * * * * * * * * * * * //

dimensions      [0 1 -1 0 0 0 0];

internalField   nonuniform List<vector> 
100
(
(2.32974e-05 0 0)
(7.09047e-05 0 0)
(0.0001198 0 0)
(0.000169038 0 0)
(0.000218334 0 0)
(0.000267583 0 0)
(0.000316747 0 0)
(0.000365812 0 0)
(0.000414782 0 0)
(0.000463665 0 0)
(0.000512471 0 0)
(0.000561213 0 0)
(0.000609905 0 0)
(0.00065856 0 0)
(0.000707191 0 0)
(0.00075581 0 0)
(0.000804432 0 0)
(0.000853066 0 0)
(0.000901727 0 0)
(0.000950424 0 0)
(0.000999171 0 0)
(0.00104798 0 0)
(0.00109686 0 0)
(0.00114582 0 0)
(0.00119487 0 0)
(0.00124403 0 0)
(0.00129331 0 0)
(0.00134272 0 0)
(0.00139226 0 0)
(0.00144196 0 0)
(0.00149183 0 0)
(0.00154187 0 0)
(0.00159211 0 0)
(0.00164256 0 0)
(0.00169323 0 0)
(0.00174415 0 0)
(0.00179532 0 0)
(0.00184677 0 0)
(0.00189852 0 0)
(0.00195059 0 0)
(0.00200302 0 0)
(0.00205582 0 0)
(0.00210903 0 0)
(0.00216268 0 0)
(0.00221682 0 0)
(0.00227149 0 0)
(0.00232675 0 0)
(0.00238265 0 0)
(0.00243927 0 0)
(0.0024967 0 0)
(0.00255502 0 0)
(0.00261437 0 0)
(0.00267488 0 0)
(0.00273674 0 0)
(0.00280017 0 0)
(0.00286545 0 0)
(0.00293294 0 0)
(0.00300309 0 0)
(0.00307653 0 0)
(0.00315409 0 0)
(0.00323692 0 0)
(0.00332666 0 0)
(0.00342578 0 0)
(0.00353803 0 0)
(0.00366959 0 0)
(0.00383119 0 0)
(0.00404342 0 0)
(0.00435111 0 0)
(0.00487292 0 0)
(0.00603898 0 0)
(0.00957511 0 0)
(0.0132808 0 0)
(0.0142805 0 0)
(0.0142807 0 0)
(0.0142807 0 0)
(0.0142807 0 0)
(0.0142807 0 0)
(0.0142807 0 0)
(0.0142807 0 0)
(0.0142807 0 0)
(0.0142807 0 0)
(0.0142807 0 0)
(0.0142807 0 0)
(0.0142807 0 0)
(0.0142807 0 0)
(0.0142807 0 0)
(0.0142807 0 0)
(0.0142807 0 0)
(0.0142807 0 0)
(0.0142807 0 0)
(0.0142807 0 0)
(0.0142807 0 0)
(0.0142807 0 0)
(0.0142807 0 0)
(0.0142807 0 0)
(0.0142807 0 0)
(0.0142807 0 0)
(0.0142807 0 0)
(0.0142807 0 0)
(0.0142807 0 0)
)
;

boundaryField
{
    inlet
    {
        type            fixedValue;
        value           uniform (0 0 0);
    }
    outlet
    {
        type            zeroGradient;
    }
    yzfaces
    {
        type            empty;
    }
}


// ************************************************************************* //
