/*--------------------------------*- C++ -*----------------------------------*\
  =========                 |
  \\      /  F ield         | OpenFOAM: The Open Source CFD Toolbox
   \\    /   O peration     | Website:  https://openfoam.org
    \\  /    A nd           | Version:  10
     \\/     M anipulation  |
\*---------------------------------------------------------------------------*/
FoamFile
{
    format      ascii;
    class       volVectorField;
    location    "1.285";
    object      Ua;
}
// * * * * * * * * * * * * * * * * * * * * * * * * * * * * * * * * * * * * * //

dimensions      [0 1 -1 0 0 0 0];

internalField   nonuniform List<vector> 
100
(
(0.00712383 0 0)
(0.0142314 0 0)
(0.0141986 0 0)
(0.0141654 0 0)
(0.014132 0 0)
(0.0140986 0 0)
(0.0140651 0 0)
(0.0140317 0 0)
(0.0139984 0 0)
(0.0139651 0 0)
(0.0139319 0 0)
(0.0138987 0 0)
(0.0138656 0 0)
(0.0138325 0 0)
(0.0137995 0 0)
(0.0137665 0 0)
(0.0137335 0 0)
(0.0137006 0 0)
(0.0136677 0 0)
(0.0136349 0 0)
(0.013602 0 0)
(0.0135692 0 0)
(0.0135364 0 0)
(0.0135036 0 0)
(0.0134707 0 0)
(0.0134379 0 0)
(0.0134051 0 0)
(0.0133723 0 0)
(0.0133395 0 0)
(0.0133066 0 0)
(0.0132738 0 0)
(0.0132409 0 0)
(0.013208 0 0)
(0.013175 0 0)
(0.0131421 0 0)
(0.0131091 0 0)
(0.013076 0 0)
(0.0130429 0 0)
(0.0130098 0 0)
(0.0129766 0 0)
(0.0129434 0 0)
(0.0129101 0 0)
(0.0128768 0 0)
(0.0128434 0 0)
(0.0128099 0 0)
(0.0127764 0 0)
(0.0127428 0 0)
(0.0127091 0 0)
(0.0126754 0 0)
(0.0126415 0 0)
(0.0126076 0 0)
(0.0125736 0 0)
(0.0125395 0 0)
(0.0125052 0 0)
(0.0124709 0 0)
(0.0124365 0 0)
(0.0124019 0 0)
(0.0123673 0 0)
(0.0123325 0 0)
(0.0122975 0 0)
(0.0122624 0 0)
(0.0122272 0 0)
(0.0121918 0 0)
(0.0121563 0 0)
(0.0121206 0 0)
(0.0120847 0 0)
(0.0120485 0 0)
(0.0120122 0 0)
(0.0119757 0 0)
(0.0119389 0 0)
(0.0119019 0 0)
(0.0118646 0 0)
(0.011827 0 0)
(0.0117891 0 0)
(0.0117509 0 0)
(0.0117122 0 0)
(0.0116732 0 0)
(0.0116338 0 0)
(0.0115938 0 0)
(0.0115533 0 0)
(0.0115122 0 0)
(0.0114705 0 0)
(0.011428 0 0)
(0.0113846 0 0)
(0.0113403 0 0)
(0.0112948 0 0)
(0.011248 0 0)
(0.0111997 0 0)
(0.0111495 0 0)
(0.0110972 0 0)
(0.0110421 0 0)
(0.0109837 0 0)
(0.0109212 0 0)
(0.0108531 0 0)
(0.0107779 0 0)
(0.0106928 0 0)
(0.0105939 0 0)
(0.0104743 0 0)
(0.0103222 0 0)
(0.0101145 0 0)
)
;

boundaryField
{
    inlet
    {
        type            fixedValue;
        value           uniform (0 0 0);
    }
    outlet
    {
        type            zeroGradient;
    }
    yzfaces
    {
        type            empty;
    }
}


// ************************************************************************* //
