/*--------------------------------*- C++ -*----------------------------------*\
  =========                 |
  \\      /  F ield         | OpenFOAM: The Open Source CFD Toolbox
   \\    /   O peration     | Website:  https://openfoam.org
    \\  /    A nd           | Version:  10
     \\/     M anipulation  |
\*---------------------------------------------------------------------------*/
FoamFile
{
    format      ascii;
    class       volVectorField;
    location    "0.56";
    object      Ua;
}
// * * * * * * * * * * * * * * * * * * * * * * * * * * * * * * * * * * * * * //

dimensions      [0 1 -1 0 0 0 0];

internalField   nonuniform List<vector> 
100
(
(0.00710426 0 0)
(0.0141704 0 0)
(0.0140941 0 0)
(0.0140177 0 0)
(0.0139413 0 0)
(0.0138652 0 0)
(0.0137891 0 0)
(0.0137131 0 0)
(0.0136373 0 0)
(0.0135614 0 0)
(0.0134855 0 0)
(0.0134095 0 0)
(0.0133333 0 0)
(0.0132571 0 0)
(0.0131805 0 0)
(0.0131038 0 0)
(0.0130267 0 0)
(0.0129492 0 0)
(0.0128714 0 0)
(0.0127931 0 0)
(0.0127142 0 0)
(0.0126348 0 0)
(0.0125547 0 0)
(0.0124738 0 0)
(0.0123922 0 0)
(0.0123096 0 0)
(0.0122259 0 0)
(0.012141 0 0)
(0.0120547 0 0)
(0.0119669 0 0)
(0.0118772 0 0)
(0.0117853 0 0)
(0.0116908 0 0)
(0.0115931 0 0)
(0.0114915 0 0)
(0.0113851 0 0)
(0.0112723 0 0)
(0.011151 0 0)
(0.0110183 0 0)
(0.010869 0 0)
(0.0106946 0 0)
(0.0104795 0 0)
(0.0101917 0 0)
(0.00975327 0 0)
(0.00892001 0 0)
(0.00659513 0 0)
(0.00244735 0 0)
(3.10171e-05 0 0)
(4.32213e-13 0 0)
(0 0 0)
(0 0 0)
(0 0 0)
(0 0 0)
(0 0 0)
(0 0 0)
(0 0 0)
(0 0 0)
(0 0 0)
(0 0 0)
(0 0 0)
(0 0 0)
(0 0 0)
(0 0 0)
(0 0 0)
(0 0 0)
(0 0 0)
(0 0 0)
(0 0 0)
(0 0 0)
(0 0 0)
(0 0 0)
(0 0 0)
(0 0 0)
(0 0 0)
(0 0 0)
(0 0 0)
(0 0 0)
(0 0 0)
(0 0 0)
(0 0 0)
(0 0 0)
(0 0 0)
(0 0 0)
(0 0 0)
(0 0 0)
(0 0 0)
(0 0 0)
(0 0 0)
(0 0 0)
(0 0 0)
(0 0 0)
(0 0 0)
(0 0 0)
(0 0 0)
(0 0 0)
(0 0 0)
(0 0 0)
(0 0 0)
(0 0 0)
(0 0 0)
)
;

boundaryField
{
    inlet
    {
        type            fixedValue;
        value           uniform (0 0 0);
    }
    outlet
    {
        type            zeroGradient;
    }
    yzfaces
    {
        type            empty;
    }
}


// ************************************************************************* //
