/*--------------------------------*- C++ -*----------------------------------*\
  =========                 |
  \\      /  F ield         | OpenFOAM: The Open Source CFD Toolbox
   \\    /   O peration     | Website:  https://openfoam.org
    \\  /    A nd           | Version:  10
     \\/     M anipulation  |
\*---------------------------------------------------------------------------*/
FoamFile
{
    format      ascii;
    class       volScalarField;
    location    "0.34";
    object      yH2O;
}
// * * * * * * * * * * * * * * * * * * * * * * * * * * * * * * * * * * * * * //

dimensions      [0 0 0 0 0 0 0];

internalField   nonuniform List<scalar> 
100
(
0.00192876
0.00192877
0.00192877
0.00192877
0.00192878
0.00192879
0.00192879
0.0019288
0.00192881
0.00192882
0.00192883
0.00192884
0.00192885
0.00192886
0.00192887
0.00192889
0.0019289
0.00192891
0.00192893
0.00192894
0.00192896
0.00192897
0.00192899
0.00192901
0.00192903
0.00192905
0.00192907
0.00192909
0.00192912
0.00192916
1
1
1
1
1
1
1
1
1
1
1
1
1
1
1
1
1
1
1
1
1
1
1
1
1
1
1
1
1
1
1
1
1
1
1
1
1
1
1
1
1
1
1
1
1
1
1
1
1
1
1
1
1
1
1
1
1
1
1
1
1
1
1
1
1
1
1
1
1
1
)
;

boundaryField
{
    inlet
    {
        type            calculated;
        value           uniform 0;
    }
    outlet
    {
        type            calculated;
        value           uniform 1;
    }
    yzfaces
    {
        type            empty;
    }
}


// ************************************************************************* //
