/*--------------------------------*- C++ -*----------------------------------*\
  =========                 |
  \\      /  F ield         | OpenFOAM: The Open Source CFD Toolbox
   \\    /   O peration     | Website:  https://openfoam.org
    \\  /    A nd           | Version:  10
     \\/     M anipulation  |
\*---------------------------------------------------------------------------*/
FoamFile
{
    format      ascii;
    class       volVectorField;
    location    "0.635";
    object      Ub;
}
// * * * * * * * * * * * * * * * * * * * * * * * * * * * * * * * * * * * * * //

dimensions      [0 1 -1 0 0 0 0];

internalField   nonuniform List<vector> 
100
(
(3.24537e-05 0 0)
(9.84198e-05 0 0)
(0.000165656 0 0)
(0.000233105 0 0)
(0.000300498 0 0)
(0.000367762 0 0)
(0.000434888 0 0)
(0.000501895 0 0)
(0.000568809 0 0)
(0.000635663 0 0)
(0.000702489 0 0)
(0.000769319 0 0)
(0.000836186 0 0)
(0.00090312 0 0)
(0.000970154 0 0)
(0.00103732 0 0)
(0.00110464 0 0)
(0.00117215 0 0)
(0.00123989 0 0)
(0.00130788 0 0)
(0.00137616 0 0)
(0.00144476 0 0)
(0.00151373 0 0)
(0.00158309 0 0)
(0.00165289 0 0)
(0.00172319 0 0)
(0.00179403 0 0)
(0.00186546 0 0)
(0.00193756 0 0)
(0.0020104 0 0)
(0.00208407 0 0)
(0.00215866 0 0)
(0.0022343 0 0)
(0.00231112 0 0)
(0.0023893 0 0)
(0.00246904 0 0)
(0.00255062 0 0)
(0.00263434 0 0)
(0.00272066 0 0)
(0.0028101 0 0)
(0.00290344 0 0)
(0.00300167 0 0)
(0.00310625 0 0)
(0.00321929 0 0)
(0.00334399 0 0)
(0.00348545 0 0)
(0.00365238 0 0)
(0.00386082 0 0)
(0.00414395 0 0)
(0.00458279 0 0)
(0.00543501 0 0)
(0.00786521 0 0)
(0.0119775 0 0)
(0.0142605 0 0)
(0.0142821 0 0)
(0.0142821 0 0)
(0.0142821 0 0)
(0.0142821 0 0)
(0.0142821 0 0)
(0.0142821 0 0)
(0.0142821 0 0)
(0.0142821 0 0)
(0.0142821 0 0)
(0.0142821 0 0)
(0.0142821 0 0)
(0.0142821 0 0)
(0.0142821 0 0)
(0.0142821 0 0)
(0.0142821 0 0)
(0.0142821 0 0)
(0.0142821 0 0)
(0.0142821 0 0)
(0.0142821 0 0)
(0.0142821 0 0)
(0.0142821 0 0)
(0.0142821 0 0)
(0.0142821 0 0)
(0.0142821 0 0)
(0.0142821 0 0)
(0.0142821 0 0)
(0.0142821 0 0)
(0.0142821 0 0)
(0.0142821 0 0)
(0.0142821 0 0)
(0.0142821 0 0)
(0.0142821 0 0)
(0.0142821 0 0)
(0.0142821 0 0)
(0.0142821 0 0)
(0.0142821 0 0)
(0.0142821 0 0)
(0.0142821 0 0)
(0.0142821 0 0)
(0.0142821 0 0)
(0.0142821 0 0)
(0.0142821 0 0)
(0.0142821 0 0)
(0.0142821 0 0)
(0.0142821 0 0)
(0.0142821 0 0)
)
;

boundaryField
{
    inlet
    {
        type            fixedValue;
        value           uniform (0 0 0);
    }
    outlet
    {
        type            zeroGradient;
    }
    yzfaces
    {
        type            empty;
    }
}


// ************************************************************************* //
