y,Sb
0.9995,0.00127104
0.9985,0.00152315
0.9975,0.00171063
0.9965,0.00183815
0.9955,0.001917
0.9945,0.00196105
0.9935,0.00198326
0.9925,0.00199339
0.9915,0.00199759
0.9905,0.00199919
0.9895,0.00199975
0.9885,0.00199993
0.9875,0.00199998
0.9865,0.00199999
0.9855,0.002
0.9845,0.002
0.9835,0.002
0.9825,0.002
0.9815,0.002
0.9805,0.002
0.9795,0.002
0.9785,0.002
0.9775,0.002
0.9765,0.002
0.9755,0.002
0.9745,0.002
0.9735,0.002
0.9725,0.002
0.9715,0.002
0.9705,0.002
0.9695,0.002
0.9685,0.002
0.9675,0.002
0.9665,0.002
0.9655,0.002
0.9645,0.002
0.9635,0.002
0.9625,0.002
0.9615,0.002
0.9605,0.002
0.9595,0.002
0.9585,0.002
0.9575,0.002
0.9565,0.002
0.9555,0.002
0.9545,0.002
0.9535,0.002
0.9525,0.002
0.9515,0.002
0.9505,0.002
0.9495,0.002
0.9485,0.002
0.9475,0.002
0.9465,0.002
0.9455,0.002
0.9445,0.002
0.9435,0.002
0.9425,0.002
0.9415,0.002
0.9405,0.002
0.9395,0.002
0.9385,0.002
0.9375,0.002
0.9365,0.002
0.9355,0.002
0.9345,0.002
0.9335,0.002
0.9325,0.002
0.9315,0.002
0.9305,0.002
0.9295,0.002
0.9285,0.002
0.9275,0.002
0.9265,0.002
0.9255,0.002
0.9245,0.002
0.9235,0.002
0.9225,0.002
0.9215,0.002
0.9205,0.002
0.9195,0.002
0.9185,0.002
0.9175,0.002
0.9165,0.002
0.9155,0.002
0.9145,0.002
0.9135,0.002
0.9125,0.002
0.9115,0.002
0.9105,0.002
0.9095,0.002
0.9085,0.002
0.9075,0.002
0.9065,0.002
0.9055,0.002
0.9045,0.002
0.9035,0.002
0.9025,0.002
0.9015,0.002
0.9005,0.002
0.8995,0.002
0.8985,0.002
0.8975,0.002
0.8965,0.002
0.8955,0.002
0.8945,0.002
0.8935,0.002
0.8925,0.002
0.8915,0.002
0.8905,0.002
0.8895,0.002
0.8885,0.002
0.8875,0.002
0.8865,0.002
0.8855,0.002
0.8845,0.002
0.8835,0.002
0.8825,0.002
0.8815,0.002
0.8805,0.002
0.8795,0.002
0.8785,0.002
0.8775,0.002
0.8765,0.002
0.8755,0.002
0.8745,0.002
0.8735,0.002
0.8725,0.002
0.8715,0.002
0.8705,0.002
0.8695,0.002
0.8685,0.002
0.8675,0.002
0.8665,0.002
0.8655,0.002
0.8645,0.002
0.8635,0.002
0.8625,0.002
0.8615,0.002
0.8605,0.002
0.8595,0.002
0.8585,0.002
0.8575,0.002
0.8565,0.002
0.8555,0.002
0.8545,0.002
0.8535,0.002
0.8525,0.002
0.8515,0.002
0.8505,0.002
0.8495,0.002
0.8485,0.002
0.8475,0.002
0.8465,0.002
0.8455,0.002
0.8445,0.002
0.8435,0.002
0.8425,0.002
0.8415,0.002
0.8405,0.002
0.8395,0.002
0.8385,0.002
0.8375,0.002
0.8365,0.002
0.8355,0.002
0.8345,0.002
0.8335,0.002
0.8325,0.002
0.8315,0.002
0.8305,0.002
0.8295,0.002
0.8285,0.002
0.8275,0.002
0.8265,0.002
0.8255,0.002
0.8245,0.002
0.8235,0.002
0.8225,0.002
0.8215,0.002
0.8205,0.002
0.8195,0.002
0.8185,0.002
0.8175,0.002
0.8165,0.002
0.8155,0.002
0.8145,0.002
0.8135,0.002
0.8125,0.002
0.8115,0.002
0.8105,0.002
0.8095,0.002
0.8085,0.002
0.8075,0.002
0.8065,0.002
0.8055,0.002
0.8045,0.002
0.8035,0.002
0.8025,0.002
0.8015,0.002
0.8005,0.002
0.7995,0.002
0.7985,0.002
0.7975,0.002
0.7965,0.002
0.7955,0.002
0.7945,0.002
0.7935,0.002
0.7925,0.002
0.7915,0.002
0.7905,0.002
0.7895,0.002
0.7885,0.002
0.7875,0.002
0.7865,0.002
0.7855,0.002
0.7845,0.002
0.7835,0.002
0.7825,0.002
0.7815,0.002
0.7805,0.002
0.7795,0.002
0.7785,0.002
0.7775,0.002
0.7765,0.002
0.7755,0.002
0.7745,0.002
0.7735,0.002
0.7725,0.002
0.7715,0.002
0.7705,0.002
0.7695,0.002
0.7685,0.002
0.7675,0.002
0.7665,0.002
0.7655,0.002
0.7645,0.002
0.7635,0.002
0.7625,0.002
0.7615,0.002
0.7605,0.002
0.7595,0.002
0.7585,0.002
0.7575,0.002
0.7565,0.002
0.7555,0.002
0.7545,0.002
0.7535,0.002
0.7525,0.002
0.7515,0.002
0.7505,0.002
0.7495,0.002
0.7485,0.002
0.7475,0.002
0.7465,0.002
0.7455,0.002
0.7445,0.002
0.7435,0.002
0.7425,0.002
0.7415,0.002
0.7405,0.002
0.7395,0.002
0.7385,0.002
0.7375,0.002
0.7365,0.002
0.7355,0.002
0.7345,0.002
0.7335,0.002
0.7325,0.002
0.7315,0.002
0.7305,0.002
0.7295,0.002
0.7285,0.002
0.7275,0.002
0.7265,0.002
0.7255,0.002
0.7245,0.002
0.7235,0.002
0.7225,0.002
0.7215,0.002
0.7205,0.002
0.7195,0.002
0.7185,0.002
0.7175,0.002
0.7165,0.002
0.7155,0.002
0.7145,0.002
0.7135,0.002
0.7125,0.002
0.7115,0.002
0.7105,0.002
0.7095,0.002
0.7085,0.002
0.7075,0.002
0.7065,0.002
0.7055,0.002
0.7045,0.002
0.7035,0.002
0.7025,0.002
0.7015,0.002
0.7005,0.002
0.6995,0.002
0.6985,0.002
0.6975,0.002
0.6965,0.002
0.6955,0.002
0.6945,0.002
0.6935,0.002
0.6925,0.002
0.6915,0.002
0.6905,0.002
0.6895,0.002
0.6885,0.002
0.6875,0.002
0.6865,0.002
0.6855,0.002
0.6845,0.002
0.6835,0.002
0.6825,0.002
0.6815,0.002
0.6805,0.002
0.6795,0.002
0.6785,0.002
0.6775,0.002
0.6765,0.002
0.6755,0.002
0.6745,0.002
0.6735,0.002
0.6725,0.002
0.6715,0.002
0.6705,0.002
0.6695,0.002
0.6685,0.002
0.6675,0.002
0.6665,0.002
0.6655,0.002
0.6645,0.002
0.6635,0.002
0.6625,0.002
0.6615,0.002
0.6605,0.002
0.6595,0.002
0.6585,0.002
0.6575,0.002
0.6565,0.002
0.6555,0.002
0.6545,0.002
0.6535,0.002
0.6525,0.002
0.6515,0.002
0.6505,0.002
0.6495,0.002
0.6485,0.002
0.6475,0.002
0.6465,0.002
0.6455,0.002
0.6445,0.002
0.6435,0.002
0.6425,0.002
0.6415,0.002
0.6405,0.002
0.6395,0.002
0.6385,0.002
0.6375,0.002
0.6365,0.002
0.6355,0.002
0.6345,0.002
0.6335,0.002
0.6325,0.002
0.6315,0.002
0.6305,0.002
0.6295,0.002
0.6285,0.002
0.6275,0.002
0.6265,0.002
0.6255,0.002
0.6245,0.002
0.6235,0.002
0.6225,0.002
0.6215,0.002
0.6205,0.002
0.6195,0.002
0.6185,0.002
0.6175,0.002
0.6165,0.002
0.6155,0.002
0.6145,0.002
0.6135,0.002
0.6125,0.002
0.6115,0.002
0.6105,0.002
0.6095,0.002
0.6085,0.002
0.6075,0.002
0.6065,0.002
0.6055,0.002
0.6045,0.002
0.6035,0.002
0.6025,0.002
0.6015,0.002
0.6005,0.002
0.5995,0.002
0.5985,0.002
0.5975,0.002
0.5965,0.002
0.5955,0.002
0.5945,0.002
0.5935,0.002
0.5925,0.002
0.5915,0.002
0.5905,0.002
0.5895,0.002
0.5885,0.002
0.5875,0.002
0.5865,0.002
0.5855,0.002
0.5845,0.002
0.5835,0.002
0.5825,0.002
0.5815,0.002
0.5805,0.002
0.5795,0.002
0.5785,0.002
0.5775,0.002
0.5765,0.002
0.5755,0.002
0.5745,0.002
0.5735,0.002
0.5725,0.002
0.5715,0.002
0.5705,0.002
0.5695,0.002
0.5685,0.002
0.5675,0.002
0.5665,0.002
0.5655,0.002
0.5645,0.002
0.5635,0.002
0.5625,0.002
0.5615,0.002
0.5605,0.002
0.5595,0.002
0.5585,0.002
0.5575,0.002
0.5565,0.002
0.5555,0.002
0.5545,0.002
0.5535,0.002
0.5525,0.002
0.5515,0.002
0.5505,0.002
0.5495,0.002
0.5485,0.002
0.5475,0.002
0.5465,0.002
0.5455,0.002
0.5445,0.002
0.5435,0.002
0.5425,0.00200001
0.5415,0.00200011
0.5405,0.00200126
0.5395,0.00201329
0.5385,0.00212347
0.5375,0.00270056
0.5365,0.00402274
0.5355,0.0060318
0.5345,0.00865691
0.5335,0.0118011
0.5325,0.0153587
0.5315,0.0192323
0.5305,0.0233406
0.5295,0.0276186
0.5285,0.0320156
0.5275,0.0364928
0.5265,0.0410204
0.5255,0.0455752
0.5245,0.0501398
0.5235,0.0547004
0.5225,0.0592466
0.5215,0.0637703
0.5205,0.0682653
0.5195,0.0727267
0.5185,0.077151
0.5175,0.0815354
0.5165,0.0858779
0.5155,0.090177
0.5145,0.0944319
0.5135,0.0986419
0.5125,0.102807
0.5115,0.106926
0.5105,0.111001
0.5095,0.11503
0.5085,0.119015
0.5075,0.122957
0.5065,0.126854
0.5055,0.13071
0.5045,0.134523
0.5035,0.138295
0.5025,0.142026
0.5015,0.145718
0.5005,0.149371
0.4995,0.152986
0.4985,0.156564
0.4975,0.160105
0.4965,0.163611
0.4955,0.167082
0.4945,0.170519
0.4935,0.173922
0.4925,0.177294
0.4915,0.180634
0.4905,0.183944
0.4895,0.187221
0.4885,0.190462
0.4875,0.193666
0.4865,0.196836
0.4855,0.199971
0.4845,0.203073
0.4835,0.206142
0.4825,0.209179
0.4815,0.212185
0.4805,0.215161
0.4795,0.218106
0.4785,0.221023
0.4775,0.223911
0.4765,0.226771
0.4755,0.229604
0.4745,0.23241
0.4735,0.235189
0.4725,0.237943
0.4715,0.240672
0.4705,0.243375
0.4695,0.246055
0.4685,0.24871
0.4675,0.251342
0.4665,0.253951
0.4655,0.256538
0.4645,0.259102
0.4635,0.261644
0.4625,0.264165
0.4615,0.266665
0.4605,0.269144
0.4595,0.271603
0.4585,0.274041
0.4575,0.27646
0.4565,0.278859
0.4555,0.281239
0.4545,0.2836
0.4535,0.285942
0.4525,0.288266
0.4515,0.290572
0.4505,0.29286
0.4495,0.29513
0.4485,0.297383
0.4475,0.299619
0.4465,0.301838
0.4455,0.30404
0.4445,0.306225
0.4435,0.308394
0.4425,0.310547
0.4415,0.312684
0.4405,0.314805
0.4395,0.316911
0.4385,0.319001
0.4375,0.321076
0.4365,0.323136
0.4355,0.325181
0.4345,0.327211
0.4335,0.329226
0.4325,0.331227
0.4315,0.333213
0.4305,0.335185
0.4295,0.337143
0.4285,0.339087
0.4275,0.341017
0.4265,0.342934
0.4255,0.344836
0.4245,0.346726
0.4235,0.348601
0.4225,0.350463
0.4215,0.352312
0.4205,0.354148
0.4195,0.355971
0.4185,0.357781
0.4175,0.359577
0.4165,0.361361
0.4155,0.363132
0.4145,0.364891
0.4135,0.366636
0.4125,0.36837
0.4115,0.37009
0.4105,0.371798
0.4095,0.373494
0.4085,0.375178
0.4075,0.376849
0.4065,0.378508
0.4055,0.380155
0.4045,0.381789
0.4035,0.383412
0.4025,0.385022
0.4015,0.38662
0.4005,0.388207
0.3995,0.389781
0.3985,0.391343
0.3975,0.392894
0.3965,0.394432
0.3955,0.395959
0.3945,0.397474
0.3935,0.398977
0.3925,0.400468
0.3915,0.401948
0.3905,0.403415
0.3895,0.404871
0.3885,0.406315
0.3875,0.407748
0.3865,0.409168
0.3855,0.410577
0.3845,0.411974
0.3835,0.41336
0.3825,0.414734
0.3815,0.416096
0.3805,0.417446
0.3795,0.418784
0.3785,0.420111
0.3775,0.421426
0.3765,0.42273
0.3755,0.424021
0.3745,0.425301
0.3735,0.426569
0.3725,0.427826
0.3715,0.42907
0.3705,0.430303
0.3695,0.431524
0.3685,0.432733
0.3675,0.43393
0.3665,0.435116
0.3655,0.43629
0.3645,0.437452
0.3635,0.438601
0.3625,0.43974
0.3615,0.440866
0.3605,0.44198
0.3595,0.443083
0.3585,0.444173
0.3575,0.445252
0.3565,0.446318
0.3555,0.447373
0.3545,0.448416
0.3535,0.449446
0.3525,0.450465
0.3515,0.451472
0.3505,0.452466
0.3495,0.453449
0.3485,0.45442
0.3475,0.455379
0.3465,0.456325
0.3455,0.45726
0.3445,0.458183
0.3435,0.459093
0.3425,0.459992
0.3415,0.460878
0.3405,0.461753
0.3395,0.462616
0.3385,0.463466
0.3375,0.464305
0.3365,0.465131
0.3355,0.465946
0.3345,0.466749
0.3335,0.467539
0.3325,0.468318
0.3315,0.469085
0.3305,0.46984
0.3295,0.470583
0.3285,0.471315
0.3275,0.472034
0.3265,0.472742
0.3255,0.473438
0.3245,0.474123
0.3235,0.474796
0.3225,0.475457
0.3215,0.476107
0.3205,0.476745
0.3195,0.477372
0.3185,0.477987
0.3175,0.478591
0.3165,0.479184
0.3155,0.479765
0.3145,0.480336
0.3135,0.480895
0.3125,0.481443
0.3115,0.481981
0.3105,0.482507
0.3095,0.483023
0.3085,0.483528
0.3075,0.484022
0.3065,0.484506
0.3055,0.48498
0.3045,0.485443
0.3035,0.485895
0.3025,0.486338
0.3015,0.48677
0.3005,0.487193
0.2995,0.487606
0.2985,0.488009
0.2975,0.488402
0.2965,0.488786
0.2955,0.48916
0.2945,0.489525
0.2935,0.489881
0.2925,0.490227
0.2915,0.490565
0.2905,0.490894
0.2895,0.491214
0.2885,0.491526
0.2875,0.491829
0.2865,0.492124
0.2855,0.492411
0.2845,0.492689
0.2835,0.49296
0.2825,0.493223
0.2815,0.493478
0.2805,0.493726
0.2795,0.493966
0.2785,0.494199
0.2775,0.494425
0.2765,0.494644
0.2755,0.494856
0.2745,0.495061
0.2735,0.49526
0.2725,0.495453
0.2715,0.495639
0.2705,0.495819
0.2695,0.495993
0.2685,0.496161
0.2675,0.496323
0.2665,0.49648
0.2655,0.496631
0.2645,0.496777
0.2635,0.496917
0.2625,0.497053
0.2615,0.497184
0.2605,0.497309
0.2595,0.497431
0.2585,0.497547
0.2575,0.497659
0.2565,0.497767
0.2555,0.497871
0.2545,0.497971
0.2535,0.498066
0.2525,0.498158
0.2515,0.498246
0.2505,0.498331
0.2495,0.498412
0.2485,0.49849
0.2475,0.498564
0.2465,0.498635
0.2455,0.498704
0.2445,0.498769
0.2435,0.498831
0.2425,0.498891
0.2415,0.498948
0.2405,0.499003
0.2395,0.499055
0.2385,0.499104
0.2375,0.499152
0.2365,0.499197
0.2355,0.49924
0.2345,0.499281
0.2335,0.49932
0.2325,0.499358
0.2315,0.499393
0.2305,0.499427
0.2295,0.499459
0.2285,0.499489
0.2275,0.499518
0.2265,0.499546
0.2255,0.499572
0.2245,0.499596
0.2235,0.49962
0.2225,0.499642
0.2215,0.499663
0.2205,0.499683
0.2195,0.499702
0.2185,0.49972
0.2175,0.499737
0.2165,0.499753
0.2155,0.499768
0.2145,0.499782
0.2135,0.499796
0.2125,0.499808
0.2115,0.49982
0.2105,0.499832
0.2095,0.499842
0.2085,0.499852
0.2075,0.499862
0.2065,0.499871
0.2055,0.499879
0.2045,0.499887
0.2035,0.499895
0.2025,0.499901
0.2015,0.499908
0.2005,0.499914
0.1995,0.49992
0.1985,0.499925
0.1975,0.49993
0.1965,0.499935
0.1955,0.49994
0.1945,0.499944
0.1935,0.499948
0.1925,0.499951
0.1915,0.499955
0.1905,0.499958
0.1895,0.499961
0.1885,0.499964
0.1875,0.499966
0.1865,0.499969
0.1855,0.499971
0.1845,0.499973
0.1835,0.499975
0.1825,0.499977
0.1815,0.499979
0.1805,0.49998
0.1795,0.499982
0.1785,0.499983
0.1775,0.499984
0.1765,0.499986
0.1755,0.499987
0.1745,0.499988
0.1735,0.499989
0.1725,0.499989
0.1715,0.49999
0.1705,0.499991
0.1695,0.499992
0.1685,0.499992
0.1675,0.499993
0.1665,0.499994
0.1655,0.499994
0.1645,0.499995
0.1635,0.499995
0.1625,0.499995
0.1615,0.499996
0.1605,0.499996
0.1595,0.499996
0.1585,0.499997
0.1575,0.499997
0.1565,0.499997
0.1555,0.499998
0.1545,0.499998
0.1535,0.499998
0.1525,0.499998
0.1515,0.499998
0.1505,0.499998
0.1495,0.499999
0.1485,0.499999
0.1475,0.499999
0.1465,0.499999
0.1455,0.499999
0.1445,0.499999
0.1435,0.499999
0.1425,0.499999
0.1415,0.499999
0.1405,0.5
0.1395,0.5
0.1385,0.5
0.1375,0.5
0.1365,0.5
0.1355,0.5
0.1345,0.5
0.1335,0.5
0.1325,0.5
0.1315,0.500001
0.1305,0.500001
0.1295,0.500001
0.1285,0.500001
0.1275,0.500001
0.1265,0.500002
0.1255,0.500002
0.1245,0.500002
0.1235,0.500003
0.1225,0.500003
0.1215,0.500004
0.1205,0.500004
0.1195,0.500005
0.1185,0.500006
0.1175,0.500007
0.1165,0.500008
0.1155,0.50001
0.1145,0.500012
0.1135,0.500013
0.1125,0.500016
0.1115,0.500019
0.1105,0.500022
0.1095,0.500025
0.1085,0.50003
0.1075,0.500035
0.1065,0.500041
0.1055,0.500048
0.1045,0.500056
0.1035,0.500066
0.1025,0.500077
0.1015,0.500091
0.1005,0.500106
0.0995,0.500124
0.0985,0.500146
0.0975,0.500171
0.0965,0.5002
0.0955,0.500234
0.0945,0.500274
0.0935,0.500321
0.0925,0.500377
0.0915,0.500441
0.0905,0.500517
0.0895,0.500605
0.0885,0.500709
0.0875,0.500831
0.0865,0.500973
0.0855,0.50114
0.0845,0.501335
0.0835,0.501563
0.0825,0.501831
0.0815,0.502144
0.0805,0.502511
0.0795,0.502941
0.0785,0.503443
0.0775,0.504032
0.0765,0.50472
0.0755,0.505525
0.0745,0.506467
0.0735,0.507568
0.0725,0.508855
0.0715,0.510359
0.0705,0.512116
0.0695,0.514166
0.0685,0.516559
0.0675,0.519348
0.0665,0.522598
0.0655,0.52638
0.0645,0.530777
0.0635,0.535882
0.0625,0.5418
0.0615,0.54865
0.0605,0.55656
0.0595,0.565673
0.0585,0.576143
0.0575,0.58813
0.0565,0.6018
0.0555,0.617315
0.0545,0.634823
0.0535,0.654446
0.0525,0.676255
0.0515,0.70024
0.0505,0.726275
0.0495,0.754061
0.0485,0.783068
0.0475,0.812469
0.0465,0.841107
0.0455,0.867564
0.0445,0.89043
0.0435,0.908781
0.0425,0.922558
0.0415,0.932452
0.0405,0.939448
0.0395,0.944442
0.0385,0.948098
0.0375,0.950867
0.0365,0.953042
0.0355,0.954811
0.0345,0.956298
0.0335,0.957585
0.0325,0.958727
0.0315,0.959762
0.0305,0.960719
0.0295,0.961616
0.0285,0.962469
0.0275,0.963288
0.0265,0.964082
0.0255,0.964858
0.0245,0.965621
0.0235,0.966375
0.0225,0.967124
0.0215,0.967872
0.0205,0.968622
0.0195,0.969376
0.0185,0.970136
0.0175,0.970905
0.0165,0.971686
0.0155,0.97248
0.0145,0.973291
0.0135,0.974122
0.0125,0.974975
0.0115,0.975854
0.0105,0.976764
0.0095,0.977709
0.0085,0.978696
0.0075,0.979733
0.0065,0.980831
0.0055,0.982003
0.0045,0.983271
0.0035,0.984665
0.0025,0.986238
0.0015,0.988096
0.0005,0.990518
