/*--------------------------------*- C++ -*----------------------------------*\
  =========                 |
  \\      /  F ield         | OpenFOAM: The Open Source CFD Toolbox
   \\    /   O peration     | Website:  https://openfoam.org
    \\  /    A nd           | Version:  10
     \\/     M anipulation  |
\*---------------------------------------------------------------------------*/
FoamFile
{
    format      ascii;
    class       volVectorField;
    location    "0.185";
    object      Ub;
}
// * * * * * * * * * * * * * * * * * * * * * * * * * * * * * * * * * * * * * //

dimensions      [0 1 -1 0 0 0 0];

internalField   nonuniform List<vector> 
100
(
(0.000115283 0 0)
(0.000346724 0 0)
(0.000579582 0 0)
(0.000814068 0 0)
(0.00105144 0 0)
(0.00129324 0 0)
(0.00154136 0 0)
(0.00179825 0 0)
(0.00206735 0 0)
(0.00235393 0 0)
(0.00266665 0 0)
(0.00302124 0 0)
(0.00344991 0 0)
(0.00403077 0 0)
(0.00500989 0 0)
(0.00750107 0 0)
(0.0117902 0 0)
(0.0142548 0 0)
(0.0142847 0 0)
(0.0142847 0 0)
(0.0142847 0 0)
(0.0142847 0 0)
(0.0142847 0 0)
(0.0142847 0 0)
(0.0142847 0 0)
(0.0142847 0 0)
(0.0142847 0 0)
(0.0142847 0 0)
(0.0142847 0 0)
(0.0142847 0 0)
(0.0142847 0 0)
(0.0142847 0 0)
(0.0142847 0 0)
(0.0142847 0 0)
(0.0142847 0 0)
(0.0142847 0 0)
(0.0142847 0 0)
(0.0142847 0 0)
(0.0142847 0 0)
(0.0142847 0 0)
(0.0142847 0 0)
(0.0142847 0 0)
(0.0142847 0 0)
(0.0142847 0 0)
(0.0142847 0 0)
(0.0142847 0 0)
(0.0142847 0 0)
(0.0142847 0 0)
(0.0142847 0 0)
(0.0142847 0 0)
(0.0142847 0 0)
(0.0142847 0 0)
(0.0142847 0 0)
(0.0142847 0 0)
(0.0142847 0 0)
(0.0142847 0 0)
(0.0142847 0 0)
(0.0142847 0 0)
(0.0142847 0 0)
(0.0142847 0 0)
(0.0142847 0 0)
(0.0142847 0 0)
(0.0142847 0 0)
(0.0142847 0 0)
(0.0142847 0 0)
(0.0142847 0 0)
(0.0142847 0 0)
(0.0142847 0 0)
(0.0142847 0 0)
(0.0142847 0 0)
(0.0142847 0 0)
(0.0142847 0 0)
(0.0142847 0 0)
(0.0142847 0 0)
(0.0142847 0 0)
(0.0142847 0 0)
(0.0142847 0 0)
(0.0142847 0 0)
(0.0142847 0 0)
(0.0142847 0 0)
(0.0142847 0 0)
(0.0142847 0 0)
(0.0142847 0 0)
(0.0142847 0 0)
(0.0142847 0 0)
(0.0142847 0 0)
(0.0142847 0 0)
(0.0142847 0 0)
(0.0142847 0 0)
(0.0142847 0 0)
(0.0142847 0 0)
(0.0142847 0 0)
(0.0142847 0 0)
(0.0142847 0 0)
(0.0142847 0 0)
(0.0142847 0 0)
(0.0142847 0 0)
(0.0142847 0 0)
(0.0142847 0 0)
(0.0142847 0 0)
)
;

boundaryField
{
    inlet
    {
        type            fixedValue;
        value           uniform (0 0 0);
    }
    outlet
    {
        type            zeroGradient;
    }
    yzfaces
    {
        type            empty;
    }
}


// ************************************************************************* //
