/*--------------------------------*- C++ -*----------------------------------*\
  =========                 |
  \\      /  F ield         | OpenFOAM: The Open Source CFD Toolbox
   \\    /   O peration     | Website:  https://openfoam.org
    \\  /    A nd           | Version:  10
     \\/     M anipulation  |
\*---------------------------------------------------------------------------*/
FoamFile
{
    format      ascii;
    class       volVectorField;
    location    "0.685";
    object      Ub;
}
// * * * * * * * * * * * * * * * * * * * * * * * * * * * * * * * * * * * * * //

dimensions      [0 1 -1 0 0 0 0];

internalField   nonuniform List<vector> 
100
(
(2.99762e-05 0 0)
(9.09816e-05 0 0)
(0.00015327 0 0)
(0.000215808 0 0)
(0.000278318 0 0)
(0.000340717 0 0)
(0.000402987 0 0)
(0.000465136 0 0)
(0.000527185 0 0)
(0.000589158 0 0)
(0.00065108 0 0)
(0.000712979 0 0)
(0.000774879 0 0)
(0.000836807 0 0)
(0.000898787 0 0)
(0.000960844 0 0)
(0.001023 0 0)
(0.00108529 0 0)
(0.00114772 0 0)
(0.00121033 0 0)
(0.00127313 0 0)
(0.00133616 0 0)
(0.00139944 0 0)
(0.001463 0 0)
(0.00152686 0 0)
(0.00159107 0 0)
(0.00165564 0 0)
(0.00172063 0 0)
(0.00178606 0 0)
(0.00185199 0 0)
(0.00191845 0 0)
(0.00198552 0 0)
(0.00205324 0 0)
(0.0021217 0 0)
(0.00219097 0 0)
(0.00226116 0 0)
(0.00233238 0 0)
(0.00240477 0 0)
(0.0024785 0 0)
(0.00255379 0 0)
(0.00263089 0 0)
(0.00271013 0 0)
(0.00279194 0 0)
(0.00287688 0 0)
(0.00296571 0 0)
(0.00305945 0 0)
(0.00315956 0 0)
(0.00326817 0 0)
(0.00338854 0 0)
(0.00352586 0 0)
(0.00368897 0 0)
(0.00389425 0 0)
(0.00417572 0 0)
(0.00461692 0 0)
(0.00548629 0 0)
(0.00800112 0 0)
(0.0120858 0 0)
(0.0142656 0 0)
(0.0142818 0 0)
(0.0142818 0 0)
(0.0142818 0 0)
(0.0142818 0 0)
(0.0142818 0 0)
(0.0142818 0 0)
(0.0142818 0 0)
(0.0142818 0 0)
(0.0142818 0 0)
(0.0142818 0 0)
(0.0142818 0 0)
(0.0142818 0 0)
(0.0142818 0 0)
(0.0142818 0 0)
(0.0142818 0 0)
(0.0142818 0 0)
(0.0142818 0 0)
(0.0142818 0 0)
(0.0142818 0 0)
(0.0142818 0 0)
(0.0142818 0 0)
(0.0142818 0 0)
(0.0142818 0 0)
(0.0142818 0 0)
(0.0142818 0 0)
(0.0142818 0 0)
(0.0142818 0 0)
(0.0142818 0 0)
(0.0142818 0 0)
(0.0142818 0 0)
(0.0142818 0 0)
(0.0142818 0 0)
(0.0142818 0 0)
(0.0142818 0 0)
(0.0142818 0 0)
(0.0142818 0 0)
(0.0142818 0 0)
(0.0142818 0 0)
(0.0142818 0 0)
(0.0142818 0 0)
(0.0142818 0 0)
(0.0142818 0 0)
)
;

boundaryField
{
    inlet
    {
        type            fixedValue;
        value           uniform (0 0 0);
    }
    outlet
    {
        type            zeroGradient;
    }
    yzfaces
    {
        type            empty;
    }
}


// ************************************************************************* //
