/*--------------------------------*- C++ -*----------------------------------*\
  =========                 |
  \\      /  F ield         | OpenFOAM: The Open Source CFD Toolbox
   \\    /   O peration     | Website:  https://openfoam.org
    \\  /    A nd           | Version:  10
     \\/     M anipulation  |
\*---------------------------------------------------------------------------*/
FoamFile
{
    format      ascii;
    class       volVectorField;
    location    "1.1";
    object      Ub;
}
// * * * * * * * * * * * * * * * * * * * * * * * * * * * * * * * * * * * * * //

dimensions      [0 1 -1 0 0 0 0];

internalField   nonuniform List<vector> 
100
(
(1.81475e-05 0 0)
(5.53892e-05 0 0)
(9.38768e-05 0 0)
(0.000132766 0 0)
(0.000171783 0 0)
(0.000210812 0 0)
(0.000249804 0 0)
(0.000288735 0 0)
(0.000327596 0 0)
(0.000366386 0 0)
(0.000405108 0 0)
(0.000443765 0 0)
(0.000482364 0 0)
(0.000520912 0 0)
(0.000559414 0 0)
(0.000597878 0 0)
(0.000636312 0 0)
(0.00067472 0 0)
(0.000713111 0 0)
(0.00075149 0 0)
(0.000789864 0 0)
(0.000828238 0 0)
(0.00086662 0 0)
(0.000905013 0 0)
(0.000943425 0 0)
(0.000981861 0 0)
(0.00102033 0 0)
(0.00105883 0 0)
(0.00109737 0 0)
(0.00113595 0 0)
(0.00117459 0 0)
(0.00121328 0 0)
(0.00125203 0 0)
(0.00129085 0 0)
(0.00132974 0 0)
(0.00136872 0 0)
(0.00140777 0 0)
(0.00144691 0 0)
(0.00148615 0 0)
(0.00152549 0 0)
(0.00156494 0 0)
(0.0016045 0 0)
(0.00164418 0 0)
(0.00168399 0 0)
(0.00172394 0 0)
(0.00176402 0 0)
(0.00180426 0 0)
(0.00184466 0 0)
(0.00188523 0 0)
(0.00192598 0 0)
(0.00196692 0 0)
(0.00200806 0 0)
(0.00204942 0 0)
(0.00209101 0 0)
(0.00213284 0 0)
(0.00217493 0 0)
(0.00221729 0 0)
(0.00225996 0 0)
(0.00230295 0 0)
(0.00234629 0 0)
(0.00239 0 0)
(0.00243412 0 0)
(0.00247869 0 0)
(0.00252375 0 0)
(0.00256934 0 0)
(0.00261553 0 0)
(0.00266238 0 0)
(0.00270998 0 0)
(0.00275842 0 0)
(0.0028078 0 0)
(0.00285828 0 0)
(0.00291002 0 0)
(0.00296323 0 0)
(0.00301818 0 0)
(0.00307521 0 0)
(0.00313475 0 0)
(0.00319738 0 0)
(0.00326389 0 0)
(0.00333536 0 0)
(0.00341331 0 0)
(0.00349999 0 0)
(0.00359885 0 0)
(0.00371542 0 0)
(0.00385924 0 0)
(0.00404814 0 0)
(0.00431979 0 0)
(0.00476923 0 0)
(0.00571516 0 0)
(0.00859363 0 0)
(0.0125417 0 0)
(0.0142751 0 0)
(0.0142794 0 0)
(0.0142794 0 0)
(0.0142794 0 0)
(0.0142794 0 0)
(0.0142794 0 0)
(0.0142794 0 0)
(0.0142794 0 0)
(0.0142794 0 0)
(0.0142794 0 0)
)
;

boundaryField
{
    inlet
    {
        type            fixedValue;
        value           uniform (0 0 0);
    }
    outlet
    {
        type            zeroGradient;
    }
    yzfaces
    {
        type            empty;
    }
}


// ************************************************************************* //
