/*--------------------------------*- C++ -*----------------------------------*\
  =========                 |
  \\      /  F ield         | OpenFOAM: The Open Source CFD Toolbox
   \\    /   O peration     | Website:  https://openfoam.org
    \\  /    A nd           | Version:  10
     \\/     M anipulation  |
\*---------------------------------------------------------------------------*/
FoamFile
{
    format      ascii;
    class       volVectorField;
    location    "1.13";
    object      Ua;
}
// * * * * * * * * * * * * * * * * * * * * * * * * * * * * * * * * * * * * * //

dimensions      [0 1 -1 0 0 0 0];

internalField   nonuniform List<vector> 
100
(
(0.007122 0 0)
(0.0142254 0 0)
(0.014188 0 0)
(0.0141501 0 0)
(0.0141122 0 0)
(0.0140742 0 0)
(0.0140362 0 0)
(0.0139983 0 0)
(0.0139604 0 0)
(0.0139227 0 0)
(0.0138849 0 0)
(0.0138473 0 0)
(0.0138097 0 0)
(0.0137722 0 0)
(0.0137347 0 0)
(0.0136972 0 0)
(0.0136598 0 0)
(0.0136224 0 0)
(0.013585 0 0)
(0.0135477 0 0)
(0.0135103 0 0)
(0.013473 0 0)
(0.0134356 0 0)
(0.0133983 0 0)
(0.0133609 0 0)
(0.0133235 0 0)
(0.0132861 0 0)
(0.0132487 0 0)
(0.0132112 0 0)
(0.0131737 0 0)
(0.0131361 0 0)
(0.0130985 0 0)
(0.0130609 0 0)
(0.0130232 0 0)
(0.0129854 0 0)
(0.0129475 0 0)
(0.0129096 0 0)
(0.0128716 0 0)
(0.0128335 0 0)
(0.0127953 0 0)
(0.0127571 0 0)
(0.0127187 0 0)
(0.0126802 0 0)
(0.0126417 0 0)
(0.0126029 0 0)
(0.0125641 0 0)
(0.0125252 0 0)
(0.0124861 0 0)
(0.0124468 0 0)
(0.0124074 0 0)
(0.0123678 0 0)
(0.0123281 0 0)
(0.0122881 0 0)
(0.012248 0 0)
(0.0122077 0 0)
(0.0121671 0 0)
(0.0121263 0 0)
(0.0120853 0 0)
(0.012044 0 0)
(0.0120024 0 0)
(0.0119604 0 0)
(0.0119182 0 0)
(0.0118756 0 0)
(0.0118326 0 0)
(0.0117891 0 0)
(0.0117452 0 0)
(0.0117008 0 0)
(0.0116558 0 0)
(0.0116102 0 0)
(0.0115639 0 0)
(0.0115168 0 0)
(0.0114687 0 0)
(0.0114197 0 0)
(0.0113694 0 0)
(0.0113178 0 0)
(0.0112646 0 0)
(0.0112094 0 0)
(0.0111518 0 0)
(0.0110915 0 0)
(0.0110275 0 0)
(0.0109591 0 0)
(0.0108848 0 0)
(0.0108028 0 0)
(0.01071 0 0)
(0.0106019 0 0)
(0.0104708 0 0)
(0.0103027 0 0)
(0.0100696 0 0)
(0.00970595 0 0)
(0.00901732 0 0)
(0.00717481 0 0)
(0.00301949 0 0)
(0.000122086 0 0)
(6.67239e-11 0 0)
(0 0 0)
(0 0 0)
(0 0 0)
(0 0 0)
(0 0 0)
(0 0 0)
)
;

boundaryField
{
    inlet
    {
        type            fixedValue;
        value           uniform (0 0 0);
    }
    outlet
    {
        type            zeroGradient;
    }
    yzfaces
    {
        type            empty;
    }
}


// ************************************************************************* //
