/*--------------------------------*- C++ -*----------------------------------*\
  =========                 |
  \\      /  F ield         | OpenFOAM: The Open Source CFD Toolbox
   \\    /   O peration     | Website:  https://openfoam.org
    \\  /    A nd           | Version:  10
     \\/     M anipulation  |
\*---------------------------------------------------------------------------*/
FoamFile
{
    format      ascii;
    class       volVectorField;
    location    "0.58";
    object      Ua;
}
// * * * * * * * * * * * * * * * * * * * * * * * * * * * * * * * * * * * * * //

dimensions      [0 1 -1 0 0 0 0];

internalField   nonuniform List<vector> 
100
(
(0.00710553 0 0)
(0.0141743 0 0)
(0.0141007 0 0)
(0.0140268 0 0)
(0.0139531 0 0)
(0.0138795 0 0)
(0.0138061 0 0)
(0.0137327 0 0)
(0.0136595 0 0)
(0.0135862 0 0)
(0.013513 0 0)
(0.0134397 0 0)
(0.0133663 0 0)
(0.0132928 0 0)
(0.013219 0 0)
(0.0131451 0 0)
(0.0130709 0 0)
(0.0129964 0 0)
(0.0129216 0 0)
(0.0128464 0 0)
(0.0127707 0 0)
(0.0126945 0 0)
(0.0126178 0 0)
(0.0125404 0 0)
(0.0124623 0 0)
(0.0123835 0 0)
(0.0123038 0 0)
(0.0122231 0 0)
(0.0121413 0 0)
(0.0120583 0 0)
(0.0119737 0 0)
(0.0118875 0 0)
(0.0117994 0 0)
(0.0117089 0 0)
(0.0116156 0 0)
(0.0115188 0 0)
(0.0114178 0 0)
(0.0113114 0 0)
(0.011198 0 0)
(0.011075 0 0)
(0.0109387 0 0)
(0.0107829 0 0)
(0.0105969 0 0)
(0.01036 0 0)
(0.0100271 0 0)
(0.00947857 0 0)
(0.00827921 0 0)
(0.00469387 0 0)
(0.000979081 0 0)
(2.54118e-07 0 0)
(0 0 0)
(0 0 0)
(0 0 0)
(0 0 0)
(0 0 0)
(0 0 0)
(0 0 0)
(0 0 0)
(0 0 0)
(0 0 0)
(0 0 0)
(0 0 0)
(0 0 0)
(0 0 0)
(0 0 0)
(0 0 0)
(0 0 0)
(0 0 0)
(0 0 0)
(0 0 0)
(0 0 0)
(0 0 0)
(0 0 0)
(0 0 0)
(0 0 0)
(0 0 0)
(0 0 0)
(0 0 0)
(0 0 0)
(0 0 0)
(0 0 0)
(0 0 0)
(0 0 0)
(0 0 0)
(0 0 0)
(0 0 0)
(0 0 0)
(0 0 0)
(0 0 0)
(0 0 0)
(0 0 0)
(0 0 0)
(0 0 0)
(0 0 0)
(0 0 0)
(0 0 0)
(0 0 0)
(0 0 0)
(0 0 0)
(0 0 0)
)
;

boundaryField
{
    inlet
    {
        type            fixedValue;
        value           uniform (0 0 0);
    }
    outlet
    {
        type            zeroGradient;
    }
    yzfaces
    {
        type            empty;
    }
}


// ************************************************************************* //
