/*--------------------------------*- C++ -*----------------------------------*\
  =========                 |
  \\      /  F ield         | OpenFOAM: The Open Source CFD Toolbox
   \\    /   O peration     | Website:  https://openfoam.org
    \\  /    A nd           | Version:  10
     \\/     M anipulation  |
\*---------------------------------------------------------------------------*/
FoamFile
{
    format      ascii;
    class       volVectorField;
    location    "0.73";
    object      Ua;
}
// * * * * * * * * * * * * * * * * * * * * * * * * * * * * * * * * * * * * * //

dimensions      [0 1 -1 0 0 0 0];

internalField   nonuniform List<vector> 
100
(
(0.00711273 0 0)
(0.0141964 0 0)
(0.014138 0 0)
(0.0140793 0 0)
(0.0140206 0 0)
(0.013962 0 0)
(0.0139035 0 0)
(0.0138452 0 0)
(0.0137869 0 0)
(0.0137288 0 0)
(0.0136707 0 0)
(0.0136126 0 0)
(0.0135546 0 0)
(0.0134965 0 0)
(0.0134384 0 0)
(0.0133803 0 0)
(0.0133222 0 0)
(0.0132639 0 0)
(0.0132055 0 0)
(0.013147 0 0)
(0.0130884 0 0)
(0.0130296 0 0)
(0.0129706 0 0)
(0.0129114 0 0)
(0.012852 0 0)
(0.0127924 0 0)
(0.0127324 0 0)
(0.0126722 0 0)
(0.0126116 0 0)
(0.0125507 0 0)
(0.0124894 0 0)
(0.0124277 0 0)
(0.0123655 0 0)
(0.0123028 0 0)
(0.0122395 0 0)
(0.0121756 0 0)
(0.0121111 0 0)
(0.0120458 0 0)
(0.0119796 0 0)
(0.0119125 0 0)
(0.0118443 0 0)
(0.0117749 0 0)
(0.0117041 0 0)
(0.0116316 0 0)
(0.0115572 0 0)
(0.0114805 0 0)
(0.0114011 0 0)
(0.0113182 0 0)
(0.0112311 0 0)
(0.0111385 0 0)
(0.0110388 0 0)
(0.0109294 0 0)
(0.0108063 0 0)
(0.010663 0 0)
(0.0104883 0 0)
(0.0102599 0 0)
(0.0099292 0 0)
(0.0093637 0 0)
(0.00806457 0 0)
(0.00426368 0 0)
(0.000698012 0 0)
(5.89119e-08 0 0)
(0 0 0)
(0 0 0)
(0 0 0)
(0 0 0)
(0 0 0)
(0 0 0)
(0 0 0)
(0 0 0)
(0 0 0)
(0 0 0)
(0 0 0)
(0 0 0)
(0 0 0)
(0 0 0)
(0 0 0)
(0 0 0)
(0 0 0)
(0 0 0)
(0 0 0)
(0 0 0)
(0 0 0)
(0 0 0)
(0 0 0)
(0 0 0)
(0 0 0)
(0 0 0)
(0 0 0)
(0 0 0)
(0 0 0)
(0 0 0)
(0 0 0)
(0 0 0)
(0 0 0)
(0 0 0)
(0 0 0)
(0 0 0)
(0 0 0)
(0 0 0)
)
;

boundaryField
{
    inlet
    {
        type            fixedValue;
        value           uniform (0 0 0);
    }
    outlet
    {
        type            zeroGradient;
    }
    yzfaces
    {
        type            empty;
    }
}


// ************************************************************************* //
