/*--------------------------------*- C++ -*----------------------------------*\
  =========                 |
  \\      /  F ield         | OpenFOAM: The Open Source CFD Toolbox
   \\    /   O peration     | Website:  https://openfoam.org
    \\  /    A nd           | Version:  10
     \\/     M anipulation  |
\*---------------------------------------------------------------------------*/
FoamFile
{
    format      ascii;
    class       volVectorField;
    location    "1.35";
    object      Ub;
}
// * * * * * * * * * * * * * * * * * * * * * * * * * * * * * * * * * * * * * //

dimensions      [0 1 -1 0 0 0 0];

internalField   nonuniform List<vector> 
100
(
(1.45599e-05 0 0)
(4.45547e-05 0 0)
(7.57304e-05 0 0)
(0.000107336 0 0)
(0.000139111 0 0)
(0.000170942 0 0)
(0.000202774 0 0)
(0.000234577 0 0)
(0.000266338 0 0)
(0.000298048 0 0)
(0.000329706 0 0)
(0.000361312 0 0)
(0.000392867 0 0)
(0.000424374 0 0)
(0.000455837 0 0)
(0.000487259 0 0)
(0.000518643 0 0)
(0.000549994 0 0)
(0.000581316 0 0)
(0.000612612 0 0)
(0.000643887 0 0)
(0.000675143 0 0)
(0.000706384 0 0)
(0.000737614 0 0)
(0.000768837 0 0)
(0.000800055 0 0)
(0.000831272 0 0)
(0.000862491 0 0)
(0.000893716 0 0)
(0.000924948 0 0)
(0.000956192 0 0)
(0.00098745 0 0)
(0.00101873 0 0)
(0.00105002 0 0)
(0.00108134 0 0)
(0.00111268 0 0)
(0.00114405 0 0)
(0.00117546 0 0)
(0.00120689 0 0)
(0.00123837 0 0)
(0.00126988 0 0)
(0.00130144 0 0)
(0.00133304 0 0)
(0.00136469 0 0)
(0.00139639 0 0)
(0.00142814 0 0)
(0.00145995 0 0)
(0.00149182 0 0)
(0.00152375 0 0)
(0.00155575 0 0)
(0.00158782 0 0)
(0.00161996 0 0)
(0.00165218 0 0)
(0.00168448 0 0)
(0.00171686 0 0)
(0.00174932 0 0)
(0.00178188 0 0)
(0.00181453 0 0)
(0.00184729 0 0)
(0.00188014 0 0)
(0.00191311 0 0)
(0.00194619 0 0)
(0.00197939 0 0)
(0.00201272 0 0)
(0.00204618 0 0)
(0.00207977 0 0)
(0.00211351 0 0)
(0.00214741 0 0)
(0.00218147 0 0)
(0.0022157 0 0)
(0.0022501 0 0)
(0.0022847 0 0)
(0.00231951 0 0)
(0.00235453 0 0)
(0.00238978 0 0)
(0.00242528 0 0)
(0.00246104 0 0)
(0.00249708 0 0)
(0.00253343 0 0)
(0.00257012 0 0)
(0.00260716 0 0)
(0.0026446 0 0)
(0.00268247 0 0)
(0.00272081 0 0)
(0.00275968 0 0)
(0.00279914 0 0)
(0.00283924 0 0)
(0.00288008 0 0)
(0.00292176 0 0)
(0.00296439 0 0)
(0.00300812 0 0)
(0.00305312 0 0)
(0.00309963 0 0)
(0.00314791 0 0)
(0.00319834 0 0)
(0.00325137 0 0)
(0.00330763 0 0)
(0.00336797 0 0)
(0.00343354 0 0)
(0.00350601 0 0)
)
;

boundaryField
{
    inlet
    {
        type            fixedValue;
        value           uniform (0 0 0);
    }
    outlet
    {
        type            zeroGradient;
    }
    yzfaces
    {
        type            empty;
    }
}


// ************************************************************************* //
