/*--------------------------------*- C++ -*----------------------------------*\
  =========                 |
  \\      /  F ield         | OpenFOAM: The Open Source CFD Toolbox
   \\    /   O peration     | Website:  https://openfoam.org
    \\  /    A nd           | Version:  10
     \\/     M anipulation  |
\*---------------------------------------------------------------------------*/
FoamFile
{
    format      ascii;
    class       volVectorField;
    location    "0.4";
    object      Ub;
}
// * * * * * * * * * * * * * * * * * * * * * * * * * * * * * * * * * * * * * //

dimensions      [0 1 -1 0 0 0 0];

internalField   nonuniform List<vector> 
100
(
(5.24289e-05 0 0)
(0.000158289 0 0)
(0.000265216 0 0)
(0.000372129 0 0)
(0.000478885 0 0)
(0.000585543 0 0)
(0.000692211 0 0)
(0.000799014 0 0)
(0.00090608 0 0)
(0.00101354 0 0)
(0.00112152 0 0)
(0.00123017 0 0)
(0.00133962 0 0)
(0.00145004 0 0)
(0.0015616 0 0)
(0.00167451 0 0)
(0.00178899 0 0)
(0.00190532 0 0)
(0.00202384 0 0)
(0.00214496 0 0)
(0.00226924 0 0)
(0.00239736 0 0)
(0.00253027 0 0)
(0.0026693 0 0)
(0.00281631 0 0)
(0.00297414 0 0)
(0.0031472 0 0)
(0.00334284 0 0)
(0.0035743 0 0)
(0.00386791 0 0)
(0.00428445 0 0)
(0.00500038 0 0)
(0.00674869 0 0)
(0.0109526 0 0)
(0.0140789 0 0)
(0.0142834 0 0)
(0.0142834 0 0)
(0.0142834 0 0)
(0.0142834 0 0)
(0.0142834 0 0)
(0.0142834 0 0)
(0.0142834 0 0)
(0.0142834 0 0)
(0.0142834 0 0)
(0.0142834 0 0)
(0.0142834 0 0)
(0.0142834 0 0)
(0.0142834 0 0)
(0.0142834 0 0)
(0.0142834 0 0)
(0.0142834 0 0)
(0.0142834 0 0)
(0.0142834 0 0)
(0.0142834 0 0)
(0.0142834 0 0)
(0.0142834 0 0)
(0.0142834 0 0)
(0.0142834 0 0)
(0.0142834 0 0)
(0.0142834 0 0)
(0.0142834 0 0)
(0.0142834 0 0)
(0.0142834 0 0)
(0.0142834 0 0)
(0.0142834 0 0)
(0.0142834 0 0)
(0.0142834 0 0)
(0.0142834 0 0)
(0.0142834 0 0)
(0.0142834 0 0)
(0.0142834 0 0)
(0.0142834 0 0)
(0.0142834 0 0)
(0.0142834 0 0)
(0.0142834 0 0)
(0.0142834 0 0)
(0.0142834 0 0)
(0.0142834 0 0)
(0.0142834 0 0)
(0.0142834 0 0)
(0.0142834 0 0)
(0.0142834 0 0)
(0.0142834 0 0)
(0.0142834 0 0)
(0.0142834 0 0)
(0.0142834 0 0)
(0.0142834 0 0)
(0.0142834 0 0)
(0.0142834 0 0)
(0.0142834 0 0)
(0.0142834 0 0)
(0.0142834 0 0)
(0.0142834 0 0)
(0.0142834 0 0)
(0.0142834 0 0)
(0.0142834 0 0)
(0.0142834 0 0)
(0.0142834 0 0)
(0.0142834 0 0)
(0.0142834 0 0)
)
;

boundaryField
{
    inlet
    {
        type            fixedValue;
        value           uniform (0 0 0);
    }
    outlet
    {
        type            zeroGradient;
    }
    yzfaces
    {
        type            empty;
    }
}


// ************************************************************************* //
