/*--------------------------------*- C++ -*----------------------------------*\
  =========                 |
  \\      /  F ield         | OpenFOAM: The Open Source CFD Toolbox
   \\    /   O peration     | Website:  https://openfoam.org
    \\  /    A nd           | Version:  10
     \\/     M anipulation  |
\*---------------------------------------------------------------------------*/
FoamFile
{
    format      ascii;
    class       volVectorField;
    location    "0.405";
    object      Ub;
}
// * * * * * * * * * * * * * * * * * * * * * * * * * * * * * * * * * * * * * //

dimensions      [0 1 -1 0 0 0 0];

internalField   nonuniform List<vector> 
100
(
(5.17621e-05 0 0)
(0.000156292 0 0)
(0.000261897 0 0)
(0.000367491 0 0)
(0.000472928 0 0)
(0.000578259 0 0)
(0.000683588 0 0)
(0.000789034 0 0)
(0.00089472 0 0)
(0.00100077 0 0)
(0.00110732 0 0)
(0.00121448 0 0)
(0.00132241 0 0)
(0.00143125 0 0)
(0.00154117 0 0)
(0.00165235 0 0)
(0.00176501 0 0)
(0.00187941 0 0)
(0.00199585 0 0)
(0.00211472 0 0)
(0.0022365 0 0)
(0.00236182 0 0)
(0.00249151 0 0)
(0.00262672 0 0)
(0.00276908 0 0)
(0.00292097 0 0)
(0.00308606 0 0)
(0.00327031 0 0)
(0.00348408 0 0)
(0.00374706 0 0)
(0.00410188 0 0)
(0.00465988 0 0)
(0.00581649 0 0)
(0.00924481 0 0)
(0.0130744 0 0)
(0.0142827 0 0)
(0.0142834 0 0)
(0.0142834 0 0)
(0.0142834 0 0)
(0.0142834 0 0)
(0.0142834 0 0)
(0.0142834 0 0)
(0.0142834 0 0)
(0.0142834 0 0)
(0.0142834 0 0)
(0.0142834 0 0)
(0.0142834 0 0)
(0.0142834 0 0)
(0.0142834 0 0)
(0.0142834 0 0)
(0.0142834 0 0)
(0.0142834 0 0)
(0.0142834 0 0)
(0.0142834 0 0)
(0.0142834 0 0)
(0.0142834 0 0)
(0.0142834 0 0)
(0.0142834 0 0)
(0.0142834 0 0)
(0.0142834 0 0)
(0.0142834 0 0)
(0.0142834 0 0)
(0.0142834 0 0)
(0.0142834 0 0)
(0.0142834 0 0)
(0.0142834 0 0)
(0.0142834 0 0)
(0.0142834 0 0)
(0.0142834 0 0)
(0.0142834 0 0)
(0.0142834 0 0)
(0.0142834 0 0)
(0.0142834 0 0)
(0.0142834 0 0)
(0.0142834 0 0)
(0.0142834 0 0)
(0.0142834 0 0)
(0.0142834 0 0)
(0.0142834 0 0)
(0.0142834 0 0)
(0.0142834 0 0)
(0.0142834 0 0)
(0.0142834 0 0)
(0.0142834 0 0)
(0.0142834 0 0)
(0.0142834 0 0)
(0.0142834 0 0)
(0.0142834 0 0)
(0.0142834 0 0)
(0.0142834 0 0)
(0.0142834 0 0)
(0.0142834 0 0)
(0.0142834 0 0)
(0.0142834 0 0)
(0.0142834 0 0)
(0.0142834 0 0)
(0.0142834 0 0)
(0.0142834 0 0)
(0.0142834 0 0)
(0.0142834 0 0)
)
;

boundaryField
{
    inlet
    {
        type            fixedValue;
        value           uniform (0 0 0);
    }
    outlet
    {
        type            zeroGradient;
    }
    yzfaces
    {
        type            empty;
    }
}


// ************************************************************************* //
