/*--------------------------------*- C++ -*----------------------------------*\
  =========                 |
  \\      /  F ield         | OpenFOAM: The Open Source CFD Toolbox
   \\    /   O peration     | Website:  https://openfoam.org
    \\  /    A nd           | Version:  10
     \\/     M anipulation  |
\*---------------------------------------------------------------------------*/
FoamFile
{
    format      ascii;
    class       volVectorField;
    location    "0.72";
    object      Ua;
}
// * * * * * * * * * * * * * * * * * * * * * * * * * * * * * * * * * * * * * //

dimensions      [0 1 -1 0 0 0 0];

internalField   nonuniform List<vector> 
100
(
(0.00711235 0 0)
(0.0141952 0 0)
(0.014136 0 0)
(0.0140765 0 0)
(0.014017 0 0)
(0.0139576 0 0)
(0.0138983 0 0)
(0.0138392 0 0)
(0.0137801 0 0)
(0.0137211 0 0)
(0.0136622 0 0)
(0.0136034 0 0)
(0.0135445 0 0)
(0.0134856 0 0)
(0.0134267 0 0)
(0.0133678 0 0)
(0.0133088 0 0)
(0.0132497 0 0)
(0.0131905 0 0)
(0.0131311 0 0)
(0.0130716 0 0)
(0.0130119 0 0)
(0.012952 0 0)
(0.0128919 0 0)
(0.0128316 0 0)
(0.012771 0 0)
(0.0127101 0 0)
(0.0126489 0 0)
(0.0125873 0 0)
(0.0125254 0 0)
(0.012463 0 0)
(0.0124002 0 0)
(0.0123368 0 0)
(0.012273 0 0)
(0.0122085 0 0)
(0.0121433 0 0)
(0.0120774 0 0)
(0.0120107 0 0)
(0.0119431 0 0)
(0.0118744 0 0)
(0.0118045 0 0)
(0.0117332 0 0)
(0.0116603 0 0)
(0.0115856 0 0)
(0.0115087 0 0)
(0.0114291 0 0)
(0.0113462 0 0)
(0.0112593 0 0)
(0.0111672 0 0)
(0.0110683 0 0)
(0.0109604 0 0)
(0.0108397 0 0)
(0.0107006 0 0)
(0.0105328 0 0)
(0.0103175 0 0)
(0.0100137 0 0)
(0.009516 0 0)
(0.00845791 0 0)
(0.00524177 0 0)
(0.00138488 0 0)
(1.31931e-06 0 0)
(6.93889e-18 0 0)
(0 0 0)
(0 0 0)
(0 0 0)
(0 0 0)
(0 0 0)
(0 0 0)
(0 0 0)
(0 0 0)
(0 0 0)
(0 0 0)
(0 0 0)
(0 0 0)
(0 0 0)
(0 0 0)
(0 0 0)
(0 0 0)
(0 0 0)
(0 0 0)
(0 0 0)
(0 0 0)
(0 0 0)
(0 0 0)
(0 0 0)
(0 0 0)
(0 0 0)
(0 0 0)
(0 0 0)
(0 0 0)
(0 0 0)
(0 0 0)
(0 0 0)
(0 0 0)
(0 0 0)
(0 0 0)
(0 0 0)
(0 0 0)
(0 0 0)
(0 0 0)
)
;

boundaryField
{
    inlet
    {
        type            fixedValue;
        value           uniform (0 0 0);
    }
    outlet
    {
        type            zeroGradient;
    }
    yzfaces
    {
        type            empty;
    }
}


// ************************************************************************* //
