/*--------------------------------*- C++ -*----------------------------------*\
  =========                 |
  \\      /  F ield         | OpenFOAM: The Open Source CFD Toolbox
   \\    /   O peration     | Website:  https://openfoam.org
    \\  /    A nd           | Version:  10
     \\/     M anipulation  |
\*---------------------------------------------------------------------------*/
FoamFile
{
    format      ascii;
    class       volVectorField;
    location    "0.72";
    object      Ub;
}
// * * * * * * * * * * * * * * * * * * * * * * * * * * * * * * * * * * * * * //

dimensions      [0 1 -1 0 0 0 0];

internalField   nonuniform List<vector> 
100
(
(2.84477e-05 0 0)
(8.63902e-05 0 0)
(0.000145621 0 0)
(0.000205124 0 0)
(0.000264617 0 0)
(0.000324013 0 0)
(0.000383286 0 0)
(0.000442442 0 0)
(0.000501494 0 0)
(0.000560465 0 0)
(0.000619374 0 0)
(0.000678247 0 0)
(0.000737104 0 0)
(0.000795968 0 0)
(0.000854862 0 0)
(0.000913806 0 0)
(0.000972821 0 0)
(0.00103193 0 0)
(0.00109115 0 0)
(0.0011505 0 0)
(0.00121001 0 0)
(0.00126969 0 0)
(0.00132957 0 0)
(0.00138967 0 0)
(0.00145001 0 0)
(0.00151061 0 0)
(0.00157151 0 0)
(0.00163273 0 0)
(0.0016943 0 0)
(0.00175625 0 0)
(0.00181862 0 0)
(0.00188145 0 0)
(0.00194477 0 0)
(0.00200865 0 0)
(0.00207313 0 0)
(0.00213828 0 0)
(0.00220417 0 0)
(0.00227089 0 0)
(0.00233854 0 0)
(0.00240724 0 0)
(0.00247713 0 0)
(0.0025484 0 0)
(0.00262125 0 0)
(0.00269598 0 0)
(0.00277291 0 0)
(0.00285251 0 0)
(0.00293537 0 0)
(0.0030223 0 0)
(0.00311441 0 0)
(0.00321328 0 0)
(0.00332124 0 0)
(0.00344189 0 0)
(0.00358104 0 0)
(0.00374876 0 0)
(0.0039641 0 0)
(0.00426793 0 0)
(0.00476561 0 0)
(0.0058237 0 0)
(0.00903984 0 0)
(0.0128967 0 0)
(0.0142803 0 0)
(0.0142816 0 0)
(0.0142816 0 0)
(0.0142816 0 0)
(0.0142816 0 0)
(0.0142816 0 0)
(0.0142816 0 0)
(0.0142816 0 0)
(0.0142816 0 0)
(0.0142816 0 0)
(0.0142816 0 0)
(0.0142816 0 0)
(0.0142816 0 0)
(0.0142816 0 0)
(0.0142816 0 0)
(0.0142816 0 0)
(0.0142816 0 0)
(0.0142816 0 0)
(0.0142816 0 0)
(0.0142816 0 0)
(0.0142816 0 0)
(0.0142816 0 0)
(0.0142816 0 0)
(0.0142816 0 0)
(0.0142816 0 0)
(0.0142816 0 0)
(0.0142816 0 0)
(0.0142816 0 0)
(0.0142816 0 0)
(0.0142816 0 0)
(0.0142816 0 0)
(0.0142816 0 0)
(0.0142816 0 0)
(0.0142816 0 0)
(0.0142816 0 0)
(0.0142816 0 0)
(0.0142816 0 0)
(0.0142816 0 0)
(0.0142816 0 0)
(0.0142816 0 0)
)
;

boundaryField
{
    inlet
    {
        type            fixedValue;
        value           uniform (0 0 0);
    }
    outlet
    {
        type            zeroGradient;
    }
    yzfaces
    {
        type            empty;
    }
}


// ************************************************************************* //
