/*--------------------------------*- C++ -*----------------------------------*\
  =========                 |
  \\      /  F ield         | OpenFOAM: The Open Source CFD Toolbox
   \\    /   O peration     | Website:  https://openfoam.org
    \\  /    A nd           | Version:  10
     \\/     M anipulation  |
\*---------------------------------------------------------------------------*/
FoamFile
{
    format      ascii;
    class       volScalarField;
    location    "0.465";
    object      p;
}
// * * * * * * * * * * * * * * * * * * * * * * * * * * * * * * * * * * * * * //

dimensions      [1 -1 -2 0 0 0 0];

internalField   nonuniform List<scalar> 
100
(
1.00112e+07
1.00112e+07
1.00112e+07
1.00111e+07
1.00111e+07
1.00111e+07
1.00111e+07
1.0011e+07
1.0011e+07
1.00109e+07
1.00109e+07
1.00109e+07
1.00108e+07
1.00108e+07
1.00107e+07
1.00107e+07
1.00106e+07
1.00106e+07
1.00105e+07
1.00104e+07
1.00104e+07
1.00103e+07
1.00103e+07
1.00102e+07
1.00101e+07
1.001e+07
1.001e+07
1.00099e+07
1.00098e+07
1.00097e+07
1.00097e+07
1.00096e+07
1.00095e+07
1.00094e+07
1.00093e+07
1.00092e+07
1.00091e+07
1.0009e+07
1.00088e+07
1.00086e+07
1.00085e+07
1.00084e+07
1.00082e+07
1.00081e+07
1.00079e+07
1.00078e+07
1.00076e+07
1.00075e+07
1.00074e+07
1.00072e+07
1.00071e+07
1.00069e+07
1.00068e+07
1.00066e+07
1.00065e+07
1.00064e+07
1.00062e+07
1.00061e+07
1.00059e+07
1.00058e+07
1.00056e+07
1.00055e+07
1.00054e+07
1.00052e+07
1.00051e+07
1.00049e+07
1.00048e+07
1.00046e+07
1.00045e+07
1.00044e+07
1.00042e+07
1.00041e+07
1.00039e+07
1.00038e+07
1.00036e+07
1.00035e+07
1.00034e+07
1.00032e+07
1.00031e+07
1.00029e+07
1.00028e+07
1.00026e+07
1.00025e+07
1.00024e+07
1.00022e+07
1.00021e+07
1.00019e+07
1.00018e+07
1.00016e+07
1.00015e+07
1.00014e+07
1.00012e+07
1.00011e+07
1.00009e+07
1.00008e+07
1.00006e+07
1.00005e+07
1.00004e+07
1.00002e+07
1.00001e+07
)
;

boundaryField
{
    inlet
    {
        type            zeroGradient;
    }
    outlet
    {
        type            fixedValue;
        value           uniform 1e+07;
    }
    yzfaces
    {
        type            empty;
    }
}


// ************************************************************************* //
