/*--------------------------------*- C++ -*----------------------------------*\
  =========                 |
  \\      /  F ield         | OpenFOAM: The Open Source CFD Toolbox
   \\    /   O peration     | Website:  https://openfoam.org
    \\  /    A nd           | Version:  10
     \\/     M anipulation  |
\*---------------------------------------------------------------------------*/
FoamFile
{
    format      ascii;
    class       volVectorField;
    location    "0.465";
    object      Ua;
}
// * * * * * * * * * * * * * * * * * * * * * * * * * * * * * * * * * * * * * //

dimensions      [0 1 -1 0 0 0 0];

internalField   nonuniform List<vector> 
100
(
(0.00709665 0 0)
(0.0141474 0 0)
(0.0140554 0 0)
(0.0139634 0 0)
(0.0138716 0 0)
(0.0137799 0 0)
(0.0136883 0 0)
(0.0135967 0 0)
(0.0135051 0 0)
(0.0134133 0 0)
(0.0133213 0 0)
(0.013229 0 0)
(0.0131363 0 0)
(0.0130432 0 0)
(0.0129494 0 0)
(0.0128551 0 0)
(0.0127599 0 0)
(0.0126639 0 0)
(0.0125669 0 0)
(0.0124688 0 0)
(0.0123693 0 0)
(0.0122683 0 0)
(0.0121655 0 0)
(0.0120606 0 0)
(0.0119532 0 0)
(0.0118428 0 0)
(0.0117289 0 0)
(0.0116104 0 0)
(0.0114861 0 0)
(0.0113544 0 0)
(0.0112125 0 0)
(0.0110566 0 0)
(0.0108797 0 0)
(0.0106703 0 0)
(0.0104053 0 0)
(0.0100331 0 0)
(0.00941207 0 0)
(0.00799393 0 0)
(0.00402847 0 0)
(0.000540977 0 0)
(1.99572e-08 0 0)
(0 0 0)
(0 0 0)
(0 0 0)
(0 0 0)
(0 0 0)
(0 0 0)
(0 0 0)
(0 0 0)
(0 0 0)
(0 0 0)
(0 0 0)
(0 0 0)
(0 0 0)
(0 0 0)
(0 0 0)
(0 0 0)
(0 0 0)
(0 0 0)
(0 0 0)
(0 0 0)
(0 0 0)
(0 0 0)
(0 0 0)
(0 0 0)
(0 0 0)
(0 0 0)
(0 0 0)
(0 0 0)
(0 0 0)
(0 0 0)
(0 0 0)
(0 0 0)
(0 0 0)
(0 0 0)
(0 0 0)
(0 0 0)
(0 0 0)
(0 0 0)
(0 0 0)
(0 0 0)
(0 0 0)
(0 0 0)
(0 0 0)
(0 0 0)
(0 0 0)
(0 0 0)
(0 0 0)
(0 0 0)
(0 0 0)
(0 0 0)
(0 0 0)
(0 0 0)
(0 0 0)
(0 0 0)
(0 0 0)
(0 0 0)
(0 0 0)
(0 0 0)
(0 0 0)
)
;

boundaryField
{
    inlet
    {
        type            fixedValue;
        value           uniform (0 0 0);
    }
    outlet
    {
        type            zeroGradient;
    }
    yzfaces
    {
        type            empty;
    }
}


// ************************************************************************* //
