/*--------------------------------*- C++ -*----------------------------------*\
  =========                 |
  \\      /  F ield         | OpenFOAM: The Open Source CFD Toolbox
   \\    /   O peration     | Website:  https://openfoam.org
    \\  /    A nd           | Version:  10
     \\/     M anipulation  |
\*---------------------------------------------------------------------------*/
FoamFile
{
    format      ascii;
    class       volVectorField;
    location    "0.585";
    object      Ua;
}
// * * * * * * * * * * * * * * * * * * * * * * * * * * * * * * * * * * * * * //

dimensions      [0 1 -1 0 0 0 0];

internalField   nonuniform List<vector> 
100
(
(0.00710583 0 0)
(0.0141752 0 0)
(0.0141022 0 0)
(0.014029 0 0)
(0.0139559 0 0)
(0.013883 0 0)
(0.0138101 0 0)
(0.0137374 0 0)
(0.0136648 0 0)
(0.0135922 0 0)
(0.0135196 0 0)
(0.0134469 0 0)
(0.0133742 0 0)
(0.0133013 0 0)
(0.0132282 0 0)
(0.013155 0 0)
(0.0130815 0 0)
(0.0130077 0 0)
(0.0129336 0 0)
(0.0128591 0 0)
(0.0127841 0 0)
(0.0127087 0 0)
(0.0126328 0 0)
(0.0125562 0 0)
(0.012479 0 0)
(0.0124011 0 0)
(0.0123223 0 0)
(0.0122426 0 0)
(0.0121618 0 0)
(0.0120798 0 0)
(0.0119965 0 0)
(0.0119115 0 0)
(0.0118248 0 0)
(0.0117358 0 0)
(0.0116443 0 0)
(0.0115496 0 0)
(0.011451 0 0)
(0.0113475 0 0)
(0.0112376 0 0)
(0.0111194 0 0)
(0.0109895 0 0)
(0.0108431 0 0)
(0.0106715 0 0)
(0.0104589 0 0)
(0.010173 0 0)
(0.00973487 0 0)
(0.00889623 0 0)
(0.00653929 0 0)
(0.00240259 0 0)
(2.77409e-05 0 0)
(2.89607e-13 0 0)
(0 0 0)
(0 0 0)
(0 0 0)
(0 0 0)
(0 0 0)
(0 0 0)
(0 0 0)
(0 0 0)
(0 0 0)
(0 0 0)
(0 0 0)
(0 0 0)
(0 0 0)
(0 0 0)
(0 0 0)
(0 0 0)
(0 0 0)
(0 0 0)
(0 0 0)
(0 0 0)
(0 0 0)
(0 0 0)
(0 0 0)
(0 0 0)
(0 0 0)
(0 0 0)
(0 0 0)
(0 0 0)
(0 0 0)
(0 0 0)
(0 0 0)
(0 0 0)
(0 0 0)
(0 0 0)
(0 0 0)
(0 0 0)
(0 0 0)
(0 0 0)
(0 0 0)
(0 0 0)
(0 0 0)
(0 0 0)
(0 0 0)
(0 0 0)
(0 0 0)
(0 0 0)
(0 0 0)
(0 0 0)
(0 0 0)
)
;

boundaryField
{
    inlet
    {
        type            fixedValue;
        value           uniform (0 0 0);
    }
    outlet
    {
        type            zeroGradient;
    }
    yzfaces
    {
        type            empty;
    }
}


// ************************************************************************* //
