/*--------------------------------*- C++ -*----------------------------------*\
  =========                 |
  \\      /  F ield         | OpenFOAM: The Open Source CFD Toolbox
   \\    /   O peration     | Website:  https://openfoam.org
    \\  /    A nd           | Version:  10
     \\/     M anipulation  |
\*---------------------------------------------------------------------------*/
FoamFile
{
    format      ascii;
    class       volVectorField;
    location    "0.525";
    object      Ua;
}
// * * * * * * * * * * * * * * * * * * * * * * * * * * * * * * * * * * * * * //

dimensions      [0 1 -1 0 0 0 0];

internalField   nonuniform List<vector> 
100
(
(0.00710179 0 0)
(0.0141629 0 0)
(0.0140815 0 0)
(0.014 0 0)
(0.0139186 0 0)
(0.0138374 0 0)
(0.0137562 0 0)
(0.0136752 0 0)
(0.0135942 0 0)
(0.0135132 0 0)
(0.0134321 0 0)
(0.0133509 0 0)
(0.0132694 0 0)
(0.0131877 0 0)
(0.0131057 0 0)
(0.0130234 0 0)
(0.0129406 0 0)
(0.0128573 0 0)
(0.0127735 0 0)
(0.012689 0 0)
(0.0126038 0 0)
(0.0125178 0 0)
(0.0124309 0 0)
(0.0123429 0 0)
(0.0122538 0 0)
(0.0121633 0 0)
(0.0120712 0 0)
(0.0119774 0 0)
(0.0118814 0 0)
(0.0117828 0 0)
(0.0116813 0 0)
(0.0115759 0 0)
(0.0114659 0 0)
(0.0113499 0 0)
(0.0112259 0 0)
(0.0110912 0 0)
(0.0109411 0 0)
(0.0107683 0 0)
(0.0105591 0 0)
(0.0102863 0 0)
(0.00988685 0 0)
(0.00917546 0 0)
(0.00737186 0 0)
(0.00317749 0 0)
(0.00015897 0 0)
(1.73204e-10 0 0)
(0 0 0)
(0 0 0)
(0 0 0)
(0 0 0)
(0 0 0)
(0 0 0)
(0 0 0)
(0 0 0)
(0 0 0)
(0 0 0)
(0 0 0)
(0 0 0)
(0 0 0)
(0 0 0)
(0 0 0)
(0 0 0)
(0 0 0)
(0 0 0)
(0 0 0)
(0 0 0)
(0 0 0)
(0 0 0)
(0 0 0)
(0 0 0)
(0 0 0)
(0 0 0)
(0 0 0)
(0 0 0)
(0 0 0)
(0 0 0)
(0 0 0)
(0 0 0)
(0 0 0)
(0 0 0)
(0 0 0)
(0 0 0)
(0 0 0)
(0 0 0)
(0 0 0)
(0 0 0)
(0 0 0)
(0 0 0)
(0 0 0)
(0 0 0)
(0 0 0)
(0 0 0)
(0 0 0)
(0 0 0)
(0 0 0)
(0 0 0)
(0 0 0)
(0 0 0)
(0 0 0)
(0 0 0)
)
;

boundaryField
{
    inlet
    {
        type            fixedValue;
        value           uniform (0 0 0);
    }
    outlet
    {
        type            zeroGradient;
    }
    yzfaces
    {
        type            empty;
    }
}


// ************************************************************************* //
