/*--------------------------------*- C++ -*----------------------------------*\
  =========                 |
  \\      /  F ield         | OpenFOAM: The Open Source CFD Toolbox
   \\    /   O peration     | Website:  https://openfoam.org
    \\  /    A nd           | Version:  10
     \\/     M anipulation  |
\*---------------------------------------------------------------------------*/
FoamFile
{
    format      ascii;
    class       volScalarField;
    location    "0.525";
    object      xCO2;
}
// * * * * * * * * * * * * * * * * * * * * * * * * * * * * * * * * * * * * * //

dimensions      [0 0 0 0 0 0 0];

internalField   nonuniform List<scalar> 
100
(
0.0344533
0.0344533
0.0344532
0.0344532
0.0344531
0.034453
0.0344529
0.0344528
0.0344527
0.0344526
0.0344524
0.0344523
0.0344521
0.034452
0.0344518
0.0344517
0.0344515
0.0344513
0.0344511
0.034451
0.0344508
0.0344506
0.0344503
0.0344501
0.0344499
0.0344497
0.0344495
0.0344492
0.034449
0.0344487
0.0344485
0.0344482
0.0344479
0.0344476
0.0344474
0.0344471
0.0344468
0.0344464
0.0344461
0.0344458
0.0344454
0.0344451
0.0344446
0.0344441
0.0344435
0
0
0
0
0
0
0
0
0
0
0
0
0
0
0
0
0
0
0
0
0
0
0
0
0
0
0
0
0
0
0
0
0
0
0
0
0
0
0
0
0
0
0
0
0
0
0
0
0
0
0
0
0
0
0
)
;

boundaryField
{
    inlet
    {
        type            zeroGradient;
    }
    outlet
    {
        type            zeroGradient;
    }
    yzfaces
    {
        type            empty;
    }
}


// ************************************************************************* //
