/*--------------------------------*- C++ -*----------------------------------*\
  =========                 |
  \\      /  F ield         | OpenFOAM: The Open Source CFD Toolbox
   \\    /   O peration     | Website:  https://openfoam.org
    \\  /    A nd           | Version:  10
     \\/     M anipulation  |
\*---------------------------------------------------------------------------*/
FoamFile
{
    format      ascii;
    class       volVectorField;
    location    "0.505";
    object      Ub;
}
// * * * * * * * * * * * * * * * * * * * * * * * * * * * * * * * * * * * * * //

dimensions      [0 1 -1 0 0 0 0];

internalField   nonuniform List<vector> 
100
(
(4.12015e-05 0 0)
(0.000124655 0 0)
(0.000209302 0 0)
(0.000294044 0 0)
(0.000378652 0 0)
(0.000463101 0 0)
(0.000547424 0 0)
(0.000631678 0 0)
(0.000715924 0 0)
(0.000800226 0 0)
(0.000884647 0 0)
(0.000969251 0 0)
(0.0010541 0 0)
(0.00113926 0 0)
(0.00122479 0 0)
(0.00131077 0 0)
(0.00139726 0 0)
(0.00148433 0 0)
(0.00157208 0 0)
(0.0016606 0 0)
(0.00174999 0 0)
(0.00184036 0 0)
(0.00193186 0 0)
(0.00202464 0 0)
(0.00211891 0 0)
(0.00221488 0 0)
(0.00231286 0 0)
(0.00241322 0 0)
(0.00251641 0 0)
(0.00262306 0 0)
(0.002734 0 0)
(0.00285038 0 0)
(0.00297383 0 0)
(0.00310676 0 0)
(0.00325289 0 0)
(0.00341828 0 0)
(0.00361347 0 0)
(0.00385863 0 0)
(0.0041975 0 0)
(0.00474521 0 0)
(0.00591517 0 0)
(0.00941233 0 0)
(0.0131844 0 0)
(0.0142824 0 0)
(0.0142828 0 0)
(0.0142828 0 0)
(0.0142828 0 0)
(0.0142828 0 0)
(0.0142828 0 0)
(0.0142828 0 0)
(0.0142828 0 0)
(0.0142828 0 0)
(0.0142828 0 0)
(0.0142828 0 0)
(0.0142828 0 0)
(0.0142828 0 0)
(0.0142828 0 0)
(0.0142828 0 0)
(0.0142828 0 0)
(0.0142828 0 0)
(0.0142828 0 0)
(0.0142828 0 0)
(0.0142828 0 0)
(0.0142828 0 0)
(0.0142828 0 0)
(0.0142828 0 0)
(0.0142828 0 0)
(0.0142828 0 0)
(0.0142828 0 0)
(0.0142828 0 0)
(0.0142828 0 0)
(0.0142828 0 0)
(0.0142828 0 0)
(0.0142828 0 0)
(0.0142828 0 0)
(0.0142828 0 0)
(0.0142828 0 0)
(0.0142828 0 0)
(0.0142828 0 0)
(0.0142828 0 0)
(0.0142828 0 0)
(0.0142828 0 0)
(0.0142828 0 0)
(0.0142828 0 0)
(0.0142828 0 0)
(0.0142828 0 0)
(0.0142828 0 0)
(0.0142828 0 0)
(0.0142828 0 0)
(0.0142828 0 0)
(0.0142828 0 0)
(0.0142828 0 0)
(0.0142828 0 0)
(0.0142828 0 0)
(0.0142828 0 0)
(0.0142828 0 0)
(0.0142828 0 0)
(0.0142828 0 0)
(0.0142828 0 0)
(0.0142828 0 0)
)
;

boundaryField
{
    inlet
    {
        type            fixedValue;
        value           uniform (0 0 0);
    }
    outlet
    {
        type            zeroGradient;
    }
    yzfaces
    {
        type            empty;
    }
}


// ************************************************************************* //
