/*--------------------------------*- C++ -*----------------------------------*\
  =========                 |
  \\      /  F ield         | OpenFOAM: The Open Source CFD Toolbox
   \\    /   O peration     | Website:  https://openfoam.org
    \\  /    A nd           | Version:  10
     \\/     M anipulation  |
\*---------------------------------------------------------------------------*/
FoamFile
{
    format      ascii;
    class       volVectorField;
    location    "1.015";
    object      Ub;
}
// * * * * * * * * * * * * * * * * * * * * * * * * * * * * * * * * * * * * * //

dimensions      [0 1 -1 0 0 0 0];

internalField   nonuniform List<vector> 
100
(
(1.9776e-05 0 0)
(6.02996e-05 0 0)
(0.000102088 0 0)
(0.000144262 0 0)
(0.000186541 0 0)
(0.000228813 0 0)
(0.000271032 0 0)
(0.000313177 0 0)
(0.000355242 0 0)
(0.000397228 0 0)
(0.000439142 0 0)
(0.000480989 0 0)
(0.000522777 0 0)
(0.000564516 0 0)
(0.000606214 0 0)
(0.000647878 0 0)
(0.000689519 0 0)
(0.000731143 0 0)
(0.000772759 0 0)
(0.000814376 0 0)
(0.000855999 0 0)
(0.000897638 0 0)
(0.000939298 0 0)
(0.000980988 0 0)
(0.00102271 0 0)
(0.00106448 0 0)
(0.00110631 0 0)
(0.00114818 0 0)
(0.00119012 0 0)
(0.00123214 0 0)
(0.00127423 0 0)
(0.0013164 0 0)
(0.00135867 0 0)
(0.00140104 0 0)
(0.00144351 0 0)
(0.0014861 0 0)
(0.00152882 0 0)
(0.00157166 0 0)
(0.00161464 0 0)
(0.00165777 0 0)
(0.00170106 0 0)
(0.00174452 0 0)
(0.00178816 0 0)
(0.00183198 0 0)
(0.00187601 0 0)
(0.00192026 0 0)
(0.00196473 0 0)
(0.00200945 0 0)
(0.00205443 0 0)
(0.00209969 0 0)
(0.00214525 0 0)
(0.00219113 0 0)
(0.00223737 0 0)
(0.00228398 0 0)
(0.00233099 0 0)
(0.00237846 0 0)
(0.00242641 0 0)
(0.0024749 0 0)
(0.00252398 0 0)
(0.00257371 0 0)
(0.00262418 0 0)
(0.00267547 0 0)
(0.00272769 0 0)
(0.00278098 0 0)
(0.00283549 0 0)
(0.00289143 0 0)
(0.00294904 0 0)
(0.00300863 0 0)
(0.00307063 0 0)
(0.00313556 0 0)
(0.00320414 0 0)
(0.00327735 0 0)
(0.00335658 0 0)
(0.00344385 0 0)
(0.0035422 0 0)
(0.00365646 0 0)
(0.00379479 0 0)
(0.00397204 0 0)
(0.00421845 0 0)
(0.0046061 0 0)
(0.00535531 0 0)
(0.00743554 0 0)
(0.0115849 0 0)
(0.0142206 0 0)
(0.0142799 0 0)
(0.0142799 0 0)
(0.0142799 0 0)
(0.0142799 0 0)
(0.0142799 0 0)
(0.0142799 0 0)
(0.0142799 0 0)
(0.0142799 0 0)
(0.0142799 0 0)
(0.0142799 0 0)
(0.0142799 0 0)
(0.0142799 0 0)
(0.0142799 0 0)
(0.0142799 0 0)
(0.0142799 0 0)
(0.0142799 0 0)
)
;

boundaryField
{
    inlet
    {
        type            fixedValue;
        value           uniform (0 0 0);
    }
    outlet
    {
        type            zeroGradient;
    }
    yzfaces
    {
        type            empty;
    }
}


// ************************************************************************* //
