/*--------------------------------*- C++ -*----------------------------------*\
  =========                 |
  \\      /  F ield         | OpenFOAM: The Open Source CFD Toolbox
   \\    /   O peration     | Website:  https://openfoam.org
    \\  /    A nd           | Version:  10
     \\/     M anipulation  |
\*---------------------------------------------------------------------------*/
FoamFile
{
    format      ascii;
    class       volVectorField;
    location    "1.02";
    object      Ua;
}
// * * * * * * * * * * * * * * * * * * * * * * * * * * * * * * * * * * * * * //

dimensions      [0 1 -1 0 0 0 0];

internalField   nonuniform List<vector> 
100
(
(0.00712027 0 0)
(0.0142199 0 0)
(0.0141783 0 0)
(0.0141364 0 0)
(0.0140943 0 0)
(0.0140522 0 0)
(0.0140102 0 0)
(0.0139683 0 0)
(0.0139264 0 0)
(0.0138846 0 0)
(0.0138429 0 0)
(0.0138013 0 0)
(0.0137597 0 0)
(0.0137181 0 0)
(0.0136766 0 0)
(0.0136352 0 0)
(0.0135937 0 0)
(0.0135523 0 0)
(0.0135109 0 0)
(0.0134695 0 0)
(0.0134281 0 0)
(0.0133867 0 0)
(0.0133452 0 0)
(0.0133037 0 0)
(0.0132622 0 0)
(0.0132207 0 0)
(0.013179 0 0)
(0.0131374 0 0)
(0.0130957 0 0)
(0.0130539 0 0)
(0.013012 0 0)
(0.01297 0 0)
(0.012928 0 0)
(0.0128859 0 0)
(0.0128436 0 0)
(0.0128013 0 0)
(0.0127588 0 0)
(0.0127162 0 0)
(0.0126734 0 0)
(0.0126306 0 0)
(0.0125875 0 0)
(0.0125443 0 0)
(0.0125009 0 0)
(0.0124574 0 0)
(0.0124136 0 0)
(0.0123696 0 0)
(0.0123255 0 0)
(0.012281 0 0)
(0.0122363 0 0)
(0.0121914 0 0)
(0.0121461 0 0)
(0.0121006 0 0)
(0.0120547 0 0)
(0.0120084 0 0)
(0.0119617 0 0)
(0.0119146 0 0)
(0.0118671 0 0)
(0.011819 0 0)
(0.0117703 0 0)
(0.0117211 0 0)
(0.0116711 0 0)
(0.0116203 0 0)
(0.0115687 0 0)
(0.011516 0 0)
(0.0114622 0 0)
(0.0114071 0 0)
(0.0113504 0 0)
(0.0112918 0 0)
(0.011231 0 0)
(0.0111675 0 0)
(0.0111007 0 0)
(0.0110297 0 0)
(0.0109532 0 0)
(0.0108696 0 0)
(0.0107763 0 0)
(0.0106693 0 0)
(0.010542 0 0)
(0.0103828 0 0)
(0.0101693 0 0)
(0.00985149 0 0)
(0.00929314 0 0)
(0.00797582 0 0)
(0.00413816 0 0)
(0.000626618 0 0)
(3.79661e-08 0 0)
(0 0 0)
(0 0 0)
(0 0 0)
(0 0 0)
(0 0 0)
(0 0 0)
(0 0 0)
(0 0 0)
(0 0 0)
(0 0 0)
(0 0 0)
(0 0 0)
(0 0 0)
(0 0 0)
(0 0 0)
)
;

boundaryField
{
    inlet
    {
        type            fixedValue;
        value           uniform (0 0 0);
    }
    outlet
    {
        type            zeroGradient;
    }
    yzfaces
    {
        type            empty;
    }
}


// ************************************************************************* //
