/*--------------------------------*- C++ -*----------------------------------*\
  =========                 |
  \\      /  F ield         | OpenFOAM: The Open Source CFD Toolbox
   \\    /   O peration     | Website:  https://openfoam.org
    \\  /    A nd           | Version:  10
     \\/     M anipulation  |
\*---------------------------------------------------------------------------*/
FoamFile
{
    format      ascii;
    class       volScalarField;
    location    "1.02";
    object      xH2O;
}
// * * * * * * * * * * * * * * * * * * * * * * * * * * * * * * * * * * * * * //

dimensions      [0 0 0 0 0 0 0];

internalField   nonuniform List<scalar> 
100
(
0.965558
0.965558
0.965558
0.965558
0.965559
0.965559
0.965559
0.965559
0.965559
0.965559
0.965559
0.965559
0.965559
0.965559
0.965559
0.96556
0.96556
0.96556
0.96556
0.96556
0.96556
0.96556
0.96556
0.965561
0.965561
0.965561
0.965561
0.965561
0.965561
0.965561
0.965562
0.965562
0.965562
0.965562
0.965562
0.965563
0.965563
0.965563
0.965563
0.965563
0.965563
0.965564
0.965564
0.965564
0.965564
0.965565
0.965565
0.965565
0.965565
0.965565
0.965566
0.965566
0.965566
0.965566
0.965567
0.965567
0.965567
0.965567
0.965568
0.965568
0.965568
0.965568
0.965569
0.965569
0.965569
0.965569
0.96557
0.96557
0.96557
0.965571
0.965571
0.965571
0.965571
0.965572
0.965572
0.965572
0.965573
0.965573
0.965573
0.965574
0.965574
0.965575
0.965575
0.965576
1
1
1
1
1
1
1
1
1
1
1
1
1
1
1
1
)
;

boundaryField
{
    inlet
    {
        type            calculated;
        value           uniform 1;
    }
    outlet
    {
        type            calculated;
        value           uniform 1;
    }
    yzfaces
    {
        type            empty;
    }
}


// ************************************************************************* //
