/*--------------------------------*- C++ -*----------------------------------*\
  =========                 |
  \\      /  F ield         | OpenFOAM: The Open Source CFD Toolbox
   \\    /   O peration     | Website:  https://openfoam.org
    \\  /    A nd           | Version:  10
     \\/     M anipulation  |
\*---------------------------------------------------------------------------*/
FoamFile
{
    format      ascii;
    class       volVectorField;
    location    "1.325";
    object      Ub;
}
// * * * * * * * * * * * * * * * * * * * * * * * * * * * * * * * * * * * * * //

dimensions      [0 1 -1 0 0 0 0];

internalField   nonuniform List<vector> 
100
(
(1.48568e-05 0 0)
(4.54525e-05 0 0)
(7.72359e-05 0 0)
(0.000109447 0 0)
(0.000141825 0 0)
(0.000174256 0 0)
(0.000206683 0 0)
(0.00023908 0 0)
(0.000271431 0 0)
(0.00030373 0 0)
(0.000335975 0 0)
(0.000368166 0 0)
(0.000400306 0 0)
(0.000432398 0 0)
(0.000464444 0 0)
(0.00049645 0 0)
(0.000528418 0 0)
(0.000560353 0 0)
(0.000592259 0 0)
(0.00062414 0 0)
(0.000656 0 0)
(0.000687843 0 0)
(0.000719672 0 0)
(0.000751492 0 0)
(0.000783305 0 0)
(0.000815116 0 0)
(0.000846927 0 0)
(0.000878742 0 0)
(0.000910565 0 0)
(0.000942398 0 0)
(0.000974244 0 0)
(0.00100611 0 0)
(0.00103799 0 0)
(0.0010699 0 0)
(0.00110183 0 0)
(0.00113379 0 0)
(0.00116578 0 0)
(0.00119781 0 0)
(0.00122987 0 0)
(0.00126198 0 0)
(0.00129413 0 0)
(0.00132632 0 0)
(0.00135857 0 0)
(0.00139087 0 0)
(0.00142322 0 0)
(0.00145563 0 0)
(0.00148811 0 0)
(0.00152064 0 0)
(0.00155325 0 0)
(0.00158593 0 0)
(0.00161869 0 0)
(0.00165152 0 0)
(0.00168444 0 0)
(0.00171745 0 0)
(0.00175054 0 0)
(0.00178373 0 0)
(0.00181703 0 0)
(0.00185042 0 0)
(0.00188393 0 0)
(0.00191755 0 0)
(0.00195129 0 0)
(0.00198516 0 0)
(0.00201915 0 0)
(0.00205329 0 0)
(0.00208758 0 0)
(0.00212202 0 0)
(0.00215662 0 0)
(0.00219139 0 0)
(0.00222635 0 0)
(0.0022615 0 0)
(0.00229685 0 0)
(0.00233242 0 0)
(0.00236822 0 0)
(0.00240427 0 0)
(0.00244058 0 0)
(0.00247718 0 0)
(0.00251409 0 0)
(0.00255133 0 0)
(0.00258894 0 0)
(0.00262693 0 0)
(0.00266536 0 0)
(0.00270427 0 0)
(0.0027437 0 0)
(0.00278372 0 0)
(0.00282439 0 0)
(0.00286579 0 0)
(0.00290803 0 0)
(0.00295122 0 0)
(0.00299551 0 0)
(0.00304108 0 0)
(0.00308814 0 0)
(0.00313697 0 0)
(0.00318794 0 0)
(0.0032415 0 0)
(0.00329828 0 0)
(0.0033591 0 0)
(0.00342514 0 0)
(0.00349803 0 0)
(0.00358025 0 0)
(0.00367555 0 0)
)
;

boundaryField
{
    inlet
    {
        type            fixedValue;
        value           uniform (0 0 0);
    }
    outlet
    {
        type            zeroGradient;
    }
    yzfaces
    {
        type            empty;
    }
}


// ************************************************************************* //
