/*--------------------------------*- C++ -*----------------------------------*\
  =========                 |
  \\      /  F ield         | OpenFOAM: The Open Source CFD Toolbox
   \\    /   O peration     | Website:  https://openfoam.org
    \\  /    A nd           | Version:  10
     \\/     M anipulation  |
\*---------------------------------------------------------------------------*/
FoamFile
{
    format      ascii;
    class       volVectorField;
    location    "0.52";
    object      Ub;
}
// * * * * * * * * * * * * * * * * * * * * * * * * * * * * * * * * * * * * * //

dimensions      [0 1 -1 0 0 0 0];

internalField   nonuniform List<vector> 
100
(
(3.99682e-05 0 0)
(0.000120959 0 0)
(0.000203155 0 0)
(0.000285462 0 0)
(0.000367643 0 0)
(0.000449666 0 0)
(0.000531557 0 0)
(0.000613366 0 0)
(0.00069515 0 0)
(0.000776967 0 0)
(0.000858875 0 0)
(0.000940932 0 0)
(0.0010232 0 0)
(0.00110572 0 0)
(0.00118857 0 0)
(0.00127181 0 0)
(0.00135549 0 0)
(0.00143968 0 0)
(0.00152446 0 0)
(0.0016099 0 0)
(0.0016961 0 0)
(0.00178314 0 0)
(0.00187115 0 0)
(0.00196026 0 0)
(0.00205061 0 0)
(0.00214239 0 0)
(0.00223584 0 0)
(0.00233121 0 0)
(0.00242887 0 0)
(0.00252926 0 0)
(0.00263296 0 0)
(0.00274075 0 0)
(0.00285371 0 0)
(0.00297336 0 0)
(0.00310193 0 0)
(0.00324282 0 0)
(0.00340152 0 0)
(0.00358745 0 0)
(0.00381823 0 0)
(0.00413105 0 0)
(0.0046195 0 0)
(0.00559626 0 0)
(0.00847689 0 0)
(0.0124792 0 0)
(0.0142776 0 0)
(0.0142827 0 0)
(0.0142827 0 0)
(0.0142827 0 0)
(0.0142827 0 0)
(0.0142827 0 0)
(0.0142827 0 0)
(0.0142827 0 0)
(0.0142827 0 0)
(0.0142827 0 0)
(0.0142827 0 0)
(0.0142827 0 0)
(0.0142827 0 0)
(0.0142827 0 0)
(0.0142827 0 0)
(0.0142827 0 0)
(0.0142827 0 0)
(0.0142827 0 0)
(0.0142827 0 0)
(0.0142827 0 0)
(0.0142827 0 0)
(0.0142827 0 0)
(0.0142827 0 0)
(0.0142827 0 0)
(0.0142827 0 0)
(0.0142827 0 0)
(0.0142827 0 0)
(0.0142827 0 0)
(0.0142827 0 0)
(0.0142827 0 0)
(0.0142827 0 0)
(0.0142827 0 0)
(0.0142827 0 0)
(0.0142827 0 0)
(0.0142827 0 0)
(0.0142827 0 0)
(0.0142827 0 0)
(0.0142827 0 0)
(0.0142827 0 0)
(0.0142827 0 0)
(0.0142827 0 0)
(0.0142827 0 0)
(0.0142827 0 0)
(0.0142827 0 0)
(0.0142827 0 0)
(0.0142827 0 0)
(0.0142827 0 0)
(0.0142827 0 0)
(0.0142827 0 0)
(0.0142827 0 0)
(0.0142827 0 0)
(0.0142827 0 0)
(0.0142827 0 0)
(0.0142827 0 0)
(0.0142827 0 0)
(0.0142827 0 0)
)
;

boundaryField
{
    inlet
    {
        type            fixedValue;
        value           uniform (0 0 0);
    }
    outlet
    {
        type            zeroGradient;
    }
    yzfaces
    {
        type            empty;
    }
}


// ************************************************************************* //
