/*--------------------------------*- C++ -*----------------------------------*\
  =========                 |
  \\      /  F ield         | OpenFOAM: The Open Source CFD Toolbox
   \\    /   O peration     | Website:  https://openfoam.org
    \\  /    A nd           | Version:  10
     \\/     M anipulation  |
\*---------------------------------------------------------------------------*/
FoamFile
{
    format      ascii;
    class       volScalarField;
    location    "1.06";
    object      p;
}
// * * * * * * * * * * * * * * * * * * * * * * * * * * * * * * * * * * * * * //

dimensions      [1 -1 -2 0 0 0 0];

internalField   nonuniform List<scalar> 
100
(
1.00071e+07
1.00071e+07
1.00071e+07
1.00071e+07
1.00071e+07
1.0007e+07
1.0007e+07
1.0007e+07
1.0007e+07
1.0007e+07
1.00069e+07
1.00069e+07
1.00069e+07
1.00068e+07
1.00068e+07
1.00068e+07
1.00068e+07
1.00067e+07
1.00067e+07
1.00066e+07
1.00066e+07
1.00066e+07
1.00065e+07
1.00065e+07
1.00065e+07
1.00064e+07
1.00064e+07
1.00063e+07
1.00063e+07
1.00062e+07
1.00062e+07
1.00061e+07
1.00061e+07
1.0006e+07
1.0006e+07
1.00059e+07
1.00059e+07
1.00058e+07
1.00058e+07
1.00057e+07
1.00057e+07
1.00056e+07
1.00055e+07
1.00055e+07
1.00054e+07
1.00054e+07
1.00053e+07
1.00052e+07
1.00052e+07
1.00051e+07
1.00051e+07
1.0005e+07
1.00049e+07
1.00049e+07
1.00048e+07
1.00047e+07
1.00046e+07
1.00046e+07
1.00045e+07
1.00044e+07
1.00044e+07
1.00043e+07
1.00042e+07
1.00041e+07
1.00041e+07
1.0004e+07
1.00039e+07
1.00038e+07
1.00037e+07
1.00037e+07
1.00036e+07
1.00035e+07
1.00034e+07
1.00033e+07
1.00032e+07
1.00031e+07
1.00031e+07
1.0003e+07
1.00029e+07
1.00028e+07
1.00027e+07
1.00026e+07
1.00025e+07
1.00024e+07
1.00023e+07
1.00021e+07
1.00019e+07
1.00018e+07
1.00016e+07
1.00015e+07
1.00014e+07
1.00012e+07
1.00011e+07
1.00009e+07
1.00008e+07
1.00006e+07
1.00005e+07
1.00004e+07
1.00002e+07
1.00001e+07
)
;

boundaryField
{
    inlet
    {
        type            zeroGradient;
    }
    outlet
    {
        type            fixedValue;
        value           uniform 1e+07;
    }
    yzfaces
    {
        type            empty;
    }
}


// ************************************************************************* //
