/*--------------------------------*- C++ -*----------------------------------*\
  =========                 |
  \\      /  F ield         | OpenFOAM: The Open Source CFD Toolbox
   \\    /   O peration     | Website:  https://openfoam.org
    \\  /    A nd           | Version:  10
     \\/     M anipulation  |
\*---------------------------------------------------------------------------*/
FoamFile
{
    format      ascii;
    class       volVectorField;
    location    "1.06";
    object      Ua;
}
// * * * * * * * * * * * * * * * * * * * * * * * * * * * * * * * * * * * * * //

dimensions      [0 1 -1 0 0 0 0];

internalField   nonuniform List<vector> 
100
(
(0.00712095 0 0)
(0.0142221 0 0)
(0.0141821 0 0)
(0.0141417 0 0)
(0.0141012 0 0)
(0.0140607 0 0)
(0.0140203 0 0)
(0.0139799 0 0)
(0.0139396 0 0)
(0.0138994 0 0)
(0.0138592 0 0)
(0.0138191 0 0)
(0.0137791 0 0)
(0.0137391 0 0)
(0.0136992 0 0)
(0.0136593 0 0)
(0.0136194 0 0)
(0.0135795 0 0)
(0.0135397 0 0)
(0.0134998 0 0)
(0.01346 0 0)
(0.0134202 0 0)
(0.0133803 0 0)
(0.0133404 0 0)
(0.0133005 0 0)
(0.0132606 0 0)
(0.0132206 0 0)
(0.0131806 0 0)
(0.0131406 0 0)
(0.0131004 0 0)
(0.0130603 0 0)
(0.01302 0 0)
(0.0129797 0 0)
(0.0129393 0 0)
(0.0128988 0 0)
(0.0128582 0 0)
(0.0128175 0 0)
(0.0127767 0 0)
(0.0127358 0 0)
(0.0126948 0 0)
(0.0126536 0 0)
(0.0126123 0 0)
(0.0125709 0 0)
(0.0125293 0 0)
(0.0124876 0 0)
(0.0124456 0 0)
(0.0124035 0 0)
(0.0123612 0 0)
(0.0123187 0 0)
(0.012276 0 0)
(0.0122331 0 0)
(0.0121898 0 0)
(0.0121464 0 0)
(0.0121026 0 0)
(0.0120585 0 0)
(0.0120142 0 0)
(0.0119694 0 0)
(0.0119243 0 0)
(0.0118787 0 0)
(0.0118327 0 0)
(0.0117862 0 0)
(0.0117391 0 0)
(0.0116914 0 0)
(0.0116431 0 0)
(0.011594 0 0)
(0.011544 0 0)
(0.011493 0 0)
(0.0114409 0 0)
(0.0113875 0 0)
(0.0113326 0 0)
(0.0112759 0 0)
(0.0112171 0 0)
(0.0111556 0 0)
(0.011091 0 0)
(0.0110223 0 0)
(0.0109484 0 0)
(0.0108677 0 0)
(0.0107778 0 0)
(0.010675 0 0)
(0.0105533 0 0)
(0.0104021 0 0)
(0.0102015 0 0)
(0.00990829 0 0)
(0.00940909 0 0)
(0.00830001 0 0)
(0.00489814 0 0)
(0.00114226 0 0)
(5.30301e-07 0 0)
(0 0 0)
(0 0 0)
(0 0 0)
(0 0 0)
(0 0 0)
(0 0 0)
(0 0 0)
(0 0 0)
(0 0 0)
(0 0 0)
(0 0 0)
(0 0 0)
)
;

boundaryField
{
    inlet
    {
        type            fixedValue;
        value           uniform (0 0 0);
    }
    outlet
    {
        type            zeroGradient;
    }
    yzfaces
    {
        type            empty;
    }
}


// ************************************************************************* //
