/*--------------------------------*- C++ -*----------------------------------*\
  =========                 |
  \\      /  F ield         | OpenFOAM: The Open Source CFD Toolbox
   \\    /   O peration     | Website:  https://openfoam.org
    \\  /    A nd           | Version:  10
     \\/     M anipulation  |
\*---------------------------------------------------------------------------*/
FoamFile
{
    format      ascii;
    class       volVectorField;
    location    "0.285";
    object      Ub;
}
// * * * * * * * * * * * * * * * * * * * * * * * * * * * * * * * * * * * * * //

dimensions      [0 1 -1 0 0 0 0];

internalField   nonuniform List<vector> 
100
(
(7.42303e-05 0 0)
(0.000223568 0 0)
(0.000373797 0 0)
(0.000524052 0 0)
(0.000674472 0 0)
(0.000825369 0 0)
(0.000977104 0 0)
(0.00113006 0 0)
(0.00128464 0 0)
(0.00144131 0 0)
(0.00160062 0 0)
(0.0017632 0 0)
(0.00192988 0 0)
(0.00210173 0 0)
(0.00228021 0 0)
(0.00246742 0 0)
(0.00266645 0 0)
(0.00288222 0 0)
(0.00312295 0 0)
(0.00340368 0 0)
(0.00375513 0 0)
(0.00425099 0 0)
(0.00511885 0 0)
(0.00737145 0 0)
(0.0116196 0 0)
(0.014235 0 0)
(0.0142841 0 0)
(0.0142841 0 0)
(0.0142841 0 0)
(0.0142841 0 0)
(0.0142841 0 0)
(0.0142841 0 0)
(0.0142841 0 0)
(0.0142841 0 0)
(0.0142841 0 0)
(0.0142841 0 0)
(0.0142841 0 0)
(0.0142841 0 0)
(0.0142841 0 0)
(0.0142841 0 0)
(0.0142841 0 0)
(0.0142841 0 0)
(0.0142841 0 0)
(0.0142841 0 0)
(0.0142841 0 0)
(0.0142841 0 0)
(0.0142841 0 0)
(0.0142841 0 0)
(0.0142841 0 0)
(0.0142841 0 0)
(0.0142841 0 0)
(0.0142841 0 0)
(0.0142841 0 0)
(0.0142841 0 0)
(0.0142841 0 0)
(0.0142841 0 0)
(0.0142841 0 0)
(0.0142841 0 0)
(0.0142841 0 0)
(0.0142841 0 0)
(0.0142841 0 0)
(0.0142841 0 0)
(0.0142841 0 0)
(0.0142841 0 0)
(0.0142841 0 0)
(0.0142841 0 0)
(0.0142841 0 0)
(0.0142841 0 0)
(0.0142841 0 0)
(0.0142841 0 0)
(0.0142841 0 0)
(0.0142841 0 0)
(0.0142841 0 0)
(0.0142841 0 0)
(0.0142841 0 0)
(0.0142841 0 0)
(0.0142841 0 0)
(0.0142841 0 0)
(0.0142841 0 0)
(0.0142841 0 0)
(0.0142841 0 0)
(0.0142841 0 0)
(0.0142841 0 0)
(0.0142841 0 0)
(0.0142841 0 0)
(0.0142841 0 0)
(0.0142841 0 0)
(0.0142841 0 0)
(0.0142841 0 0)
(0.0142841 0 0)
(0.0142841 0 0)
(0.0142841 0 0)
(0.0142841 0 0)
(0.0142841 0 0)
(0.0142841 0 0)
(0.0142841 0 0)
(0.0142841 0 0)
(0.0142841 0 0)
(0.0142841 0 0)
(0.0142841 0 0)
)
;

boundaryField
{
    inlet
    {
        type            fixedValue;
        value           uniform (0 0 0);
    }
    outlet
    {
        type            zeroGradient;
    }
    yzfaces
    {
        type            empty;
    }
}


// ************************************************************************* //
