/*--------------------------------*- C++ -*----------------------------------*\
  =========                 |
  \\      /  F ield         | OpenFOAM: The Open Source CFD Toolbox
   \\    /   O peration     | Website:  https://openfoam.org
    \\  /    A nd           | Version:  10
     \\/     M anipulation  |
\*---------------------------------------------------------------------------*/
FoamFile
{
    format      ascii;
    class       volVectorField;
    location    "0.335";
    object      Ub;
}
// * * * * * * * * * * * * * * * * * * * * * * * * * * * * * * * * * * * * * //

dimensions      [0 1 -1 0 0 0 0];

internalField   nonuniform List<vector> 
100
(
(6.29107e-05 0 0)
(0.000189673 0 0)
(0.000317396 0 0)
(0.000445074 0 0)
(0.00057268 0 0)
(0.000700376 0 0)
(0.00082837 0 0)
(0.00095688 0 0)
(0.00108614 0 0)
(0.00121638 0 0)
(0.00134786 0 0)
(0.00148088 0 0)
(0.00161575 0 0)
(0.00175287 0 0)
(0.0018927 0 0)
(0.00203585 0 0)
(0.00218309 0 0)
(0.00233543 0 0)
(0.00249431 0 0)
(0.00266178 0 0)
(0.0028409 0 0)
(0.00303655 0 0)
(0.00325693 0 0)
(0.00351699 0 0)
(0.00384732 0 0)
(0.00432112 0 0)
(0.00516396 0 0)
(0.00737673 0 0)
(0.0116063 0 0)
(0.014232 0 0)
(0.0142838 0 0)
(0.0142838 0 0)
(0.0142838 0 0)
(0.0142838 0 0)
(0.0142838 0 0)
(0.0142838 0 0)
(0.0142838 0 0)
(0.0142838 0 0)
(0.0142838 0 0)
(0.0142838 0 0)
(0.0142838 0 0)
(0.0142838 0 0)
(0.0142838 0 0)
(0.0142838 0 0)
(0.0142838 0 0)
(0.0142838 0 0)
(0.0142838 0 0)
(0.0142838 0 0)
(0.0142838 0 0)
(0.0142838 0 0)
(0.0142838 0 0)
(0.0142838 0 0)
(0.0142838 0 0)
(0.0142838 0 0)
(0.0142838 0 0)
(0.0142838 0 0)
(0.0142838 0 0)
(0.0142838 0 0)
(0.0142838 0 0)
(0.0142838 0 0)
(0.0142838 0 0)
(0.0142838 0 0)
(0.0142838 0 0)
(0.0142838 0 0)
(0.0142838 0 0)
(0.0142838 0 0)
(0.0142838 0 0)
(0.0142838 0 0)
(0.0142838 0 0)
(0.0142838 0 0)
(0.0142838 0 0)
(0.0142838 0 0)
(0.0142838 0 0)
(0.0142838 0 0)
(0.0142838 0 0)
(0.0142838 0 0)
(0.0142838 0 0)
(0.0142838 0 0)
(0.0142838 0 0)
(0.0142838 0 0)
(0.0142838 0 0)
(0.0142838 0 0)
(0.0142838 0 0)
(0.0142838 0 0)
(0.0142838 0 0)
(0.0142838 0 0)
(0.0142838 0 0)
(0.0142838 0 0)
(0.0142838 0 0)
(0.0142838 0 0)
(0.0142838 0 0)
(0.0142838 0 0)
(0.0142838 0 0)
(0.0142838 0 0)
(0.0142838 0 0)
(0.0142838 0 0)
(0.0142838 0 0)
(0.0142838 0 0)
(0.0142838 0 0)
(0.0142838 0 0)
)
;

boundaryField
{
    inlet
    {
        type            fixedValue;
        value           uniform (0 0 0);
    }
    outlet
    {
        type            zeroGradient;
    }
    yzfaces
    {
        type            empty;
    }
}


// ************************************************************************* //
