/*--------------------------------*- C++ -*----------------------------------*\
  =========                 |
  \\      /  F ield         | OpenFOAM: The Open Source CFD Toolbox
   \\    /   O peration     | Website:  https://openfoam.org
    \\  /    A nd           | Version:  10
     \\/     M anipulation  |
\*---------------------------------------------------------------------------*/
FoamFile
{
    format      ascii;
    class       volVectorField;
    location    "0.46";
    object      Ua;
}
// * * * * * * * * * * * * * * * * * * * * * * * * * * * * * * * * * * * * * //

dimensions      [0 1 -1 0 0 0 0];

internalField   nonuniform List<vector> 
100
(
(0.00709616 0 0)
(0.0141459 0 0)
(0.0140529 0 0)
(0.0139599 0 0)
(0.0138671 0 0)
(0.0137744 0 0)
(0.0136818 0 0)
(0.0135892 0 0)
(0.0134966 0 0)
(0.0134037 0 0)
(0.0133107 0 0)
(0.0132173 0 0)
(0.0131236 0 0)
(0.0130293 0 0)
(0.0129344 0 0)
(0.0128389 0 0)
(0.0127425 0 0)
(0.0126453 0 0)
(0.0125469 0 0)
(0.0124474 0 0)
(0.0123464 0 0)
(0.0122438 0 0)
(0.0121394 0 0)
(0.0120326 0 0)
(0.0119233 0 0)
(0.0118106 0 0)
(0.0116941 0 0)
(0.0115726 0 0)
(0.0114447 0 0)
(0.0113084 0 0)
(0.0111605 0 0)
(0.0109963 0 0)
(0.0108074 0 0)
(0.0105786 0 0)
(0.0102789 0 0)
(0.00983344 0 0)
(0.00901082 0 0)
(0.00678008 0 0)
(0.00259364 0 0)
(4.3932e-05 0 0)
(1.50661e-12 0 0)
(0 0 0)
(0 0 0)
(0 0 0)
(0 0 0)
(0 0 0)
(0 0 0)
(0 0 0)
(0 0 0)
(0 0 0)
(0 0 0)
(0 0 0)
(0 0 0)
(0 0 0)
(0 0 0)
(0 0 0)
(0 0 0)
(0 0 0)
(0 0 0)
(0 0 0)
(0 0 0)
(0 0 0)
(0 0 0)
(0 0 0)
(0 0 0)
(0 0 0)
(0 0 0)
(0 0 0)
(0 0 0)
(0 0 0)
(0 0 0)
(0 0 0)
(0 0 0)
(0 0 0)
(0 0 0)
(0 0 0)
(0 0 0)
(0 0 0)
(0 0 0)
(0 0 0)
(0 0 0)
(0 0 0)
(0 0 0)
(0 0 0)
(0 0 0)
(0 0 0)
(0 0 0)
(0 0 0)
(0 0 0)
(0 0 0)
(0 0 0)
(0 0 0)
(0 0 0)
(0 0 0)
(0 0 0)
(0 0 0)
(0 0 0)
(0 0 0)
(0 0 0)
(0 0 0)
)
;

boundaryField
{
    inlet
    {
        type            fixedValue;
        value           uniform (0 0 0);
    }
    outlet
    {
        type            zeroGradient;
    }
    yzfaces
    {
        type            empty;
    }
}


// ************************************************************************* //
