/*--------------------------------*- C++ -*----------------------------------*\
  =========                 |
  \\      /  F ield         | OpenFOAM: The Open Source CFD Toolbox
   \\    /   O peration     | Website:  https://openfoam.org
    \\  /    A nd           | Version:  10
     \\/     M anipulation  |
\*---------------------------------------------------------------------------*/
FoamFile
{
    format      ascii;
    class       volVectorField;
    location    "0.15";
    object      Ub;
}
// * * * * * * * * * * * * * * * * * * * * * * * * * * * * * * * * * * * * * //

dimensions      [0 1 -1 0 0 0 0];

internalField   nonuniform List<vector> 
100
(
(0.000142677 0 0)
(0.000429268 0 0)
(0.000718656 0 0)
(0.00101242 0 0)
(0.00131341 0 0)
(0.00162536 0 0)
(0.00195355 0 0)
(0.00230623 0 0)
(0.00269786 0 0)
(0.00315714 0 0)
(0.00375123 0 0)
(0.00468141 0 0)
(0.00682145 0 0)
(0.011226 0 0)
(0.0141814 0 0)
(0.0142849 0 0)
(0.0142849 0 0)
(0.0142849 0 0)
(0.0142849 0 0)
(0.0142849 0 0)
(0.0142849 0 0)
(0.0142849 0 0)
(0.0142849 0 0)
(0.0142849 0 0)
(0.0142849 0 0)
(0.0142849 0 0)
(0.0142849 0 0)
(0.0142849 0 0)
(0.0142849 0 0)
(0.0142849 0 0)
(0.0142849 0 0)
(0.0142849 0 0)
(0.0142849 0 0)
(0.0142849 0 0)
(0.0142849 0 0)
(0.0142849 0 0)
(0.0142849 0 0)
(0.0142849 0 0)
(0.0142849 0 0)
(0.0142849 0 0)
(0.0142849 0 0)
(0.0142849 0 0)
(0.0142849 0 0)
(0.0142849 0 0)
(0.0142849 0 0)
(0.0142849 0 0)
(0.0142849 0 0)
(0.0142849 0 0)
(0.0142849 0 0)
(0.0142849 0 0)
(0.0142849 0 0)
(0.0142849 0 0)
(0.0142849 0 0)
(0.0142849 0 0)
(0.0142849 0 0)
(0.0142849 0 0)
(0.0142849 0 0)
(0.0142849 0 0)
(0.0142849 0 0)
(0.0142849 0 0)
(0.0142849 0 0)
(0.0142849 0 0)
(0.0142849 0 0)
(0.0142849 0 0)
(0.0142849 0 0)
(0.0142849 0 0)
(0.0142849 0 0)
(0.0142849 0 0)
(0.0142849 0 0)
(0.0142849 0 0)
(0.0142849 0 0)
(0.0142849 0 0)
(0.0142849 0 0)
(0.0142849 0 0)
(0.0142849 0 0)
(0.0142849 0 0)
(0.0142849 0 0)
(0.0142849 0 0)
(0.0142849 0 0)
(0.0142849 0 0)
(0.0142849 0 0)
(0.0142849 0 0)
(0.0142849 0 0)
(0.0142849 0 0)
(0.0142849 0 0)
(0.0142849 0 0)
(0.0142849 0 0)
(0.0142849 0 0)
(0.0142849 0 0)
(0.0142849 0 0)
(0.0142849 0 0)
(0.0142849 0 0)
(0.0142849 0 0)
(0.0142849 0 0)
(0.0142849 0 0)
(0.0142849 0 0)
(0.0142849 0 0)
(0.0142849 0 0)
(0.0142849 0 0)
(0.0142849 0 0)
)
;

boundaryField
{
    inlet
    {
        type            fixedValue;
        value           uniform (0 0 0);
    }
    outlet
    {
        type            zeroGradient;
    }
    yzfaces
    {
        type            empty;
    }
}


// ************************************************************************* //
