/*--------------------------------*- C++ -*----------------------------------*\
  =========                 |
  \\      /  F ield         | OpenFOAM: The Open Source CFD Toolbox
   \\    /   O peration     | Website:  https://openfoam.org
    \\  /    A nd           | Version:  10
     \\/     M anipulation  |
\*---------------------------------------------------------------------------*/
FoamFile
{
    format      ascii;
    class       volVectorField;
    location    "0.09";
    object      Ub;
}
// * * * * * * * * * * * * * * * * * * * * * * * * * * * * * * * * * * * * * //

dimensions      [0 1 -1 0 0 0 0];

internalField   nonuniform List<vector> 
100
(
(0.000240317 0 0)
(0.000727332 0 0)
(0.00123322 0 0)
(0.00177427 0 0)
(0.00237987 0 0)
(0.00311463 0 0)
(0.00416534 0 0)
(0.00632535 0 0)
(0.0109025 0 0)
(0.0141222 0 0)
(0.0142852 0 0)
(0.0142852 0 0)
(0.0142852 0 0)
(0.0142852 0 0)
(0.0142852 0 0)
(0.0142852 0 0)
(0.0142852 0 0)
(0.0142852 0 0)
(0.0142852 0 0)
(0.0142852 0 0)
(0.0142852 0 0)
(0.0142852 0 0)
(0.0142852 0 0)
(0.0142852 0 0)
(0.0142852 0 0)
(0.0142852 0 0)
(0.0142852 0 0)
(0.0142852 0 0)
(0.0142852 0 0)
(0.0142852 0 0)
(0.0142852 0 0)
(0.0142852 0 0)
(0.0142852 0 0)
(0.0142852 0 0)
(0.0142852 0 0)
(0.0142852 0 0)
(0.0142852 0 0)
(0.0142852 0 0)
(0.0142852 0 0)
(0.0142852 0 0)
(0.0142852 0 0)
(0.0142852 0 0)
(0.0142852 0 0)
(0.0142852 0 0)
(0.0142852 0 0)
(0.0142852 0 0)
(0.0142852 0 0)
(0.0142852 0 0)
(0.0142852 0 0)
(0.0142852 0 0)
(0.0142852 0 0)
(0.0142852 0 0)
(0.0142852 0 0)
(0.0142852 0 0)
(0.0142852 0 0)
(0.0142852 0 0)
(0.0142852 0 0)
(0.0142852 0 0)
(0.0142852 0 0)
(0.0142852 0 0)
(0.0142852 0 0)
(0.0142852 0 0)
(0.0142852 0 0)
(0.0142852 0 0)
(0.0142852 0 0)
(0.0142852 0 0)
(0.0142852 0 0)
(0.0142852 0 0)
(0.0142852 0 0)
(0.0142852 0 0)
(0.0142852 0 0)
(0.0142852 0 0)
(0.0142852 0 0)
(0.0142852 0 0)
(0.0142852 0 0)
(0.0142852 0 0)
(0.0142852 0 0)
(0.0142852 0 0)
(0.0142852 0 0)
(0.0142852 0 0)
(0.0142852 0 0)
(0.0142852 0 0)
(0.0142852 0 0)
(0.0142852 0 0)
(0.0142852 0 0)
(0.0142852 0 0)
(0.0142852 0 0)
(0.0142852 0 0)
(0.0142852 0 0)
(0.0142852 0 0)
(0.0142852 0 0)
(0.0142852 0 0)
(0.0142852 0 0)
(0.0142852 0 0)
(0.0142852 0 0)
(0.0142852 0 0)
(0.0142852 0 0)
(0.0142852 0 0)
(0.0142852 0 0)
(0.0142852 0 0)
)
;

boundaryField
{
    inlet
    {
        type            fixedValue;
        value           uniform (0 0 0);
    }
    outlet
    {
        type            zeroGradient;
    }
    yzfaces
    {
        type            empty;
    }
}


// ************************************************************************* //
