/*--------------------------------*- C++ -*----------------------------------*\
  =========                 |
  \\      /  F ield         | OpenFOAM: The Open Source CFD Toolbox
   \\    /   O peration     | Website:  https://openfoam.org
    \\  /    A nd           | Version:  10
     \\/     M anipulation  |
\*---------------------------------------------------------------------------*/
FoamFile
{
    format      ascii;
    class       volVectorField;
    location    "0.95";
    object      Ua;
}
// * * * * * * * * * * * * * * * * * * * * * * * * * * * * * * * * * * * * * //

dimensions      [0 1 -1 0 0 0 0];

internalField   nonuniform List<vector> 
100
(
(0.00711892 0 0)
(0.0142156 0 0)
(0.0141709 0 0)
(0.0141259 0 0)
(0.0140807 0 0)
(0.0140356 0 0)
(0.0139905 0 0)
(0.0139455 0 0)
(0.0139006 0 0)
(0.0138558 0 0)
(0.013811 0 0)
(0.0137664 0 0)
(0.0137217 0 0)
(0.0136772 0 0)
(0.0136326 0 0)
(0.0135881 0 0)
(0.0135436 0 0)
(0.0134991 0 0)
(0.0134546 0 0)
(0.0134101 0 0)
(0.0133656 0 0)
(0.0133211 0 0)
(0.0132765 0 0)
(0.0132318 0 0)
(0.0131871 0 0)
(0.0131423 0 0)
(0.0130975 0 0)
(0.0130526 0 0)
(0.0130076 0 0)
(0.0129624 0 0)
(0.0129172 0 0)
(0.0128719 0 0)
(0.0128264 0 0)
(0.0127808 0 0)
(0.0127351 0 0)
(0.0126891 0 0)
(0.0126431 0 0)
(0.0125968 0 0)
(0.0125504 0 0)
(0.0125037 0 0)
(0.0124568 0 0)
(0.0124097 0 0)
(0.0123624 0 0)
(0.0123147 0 0)
(0.0122668 0 0)
(0.0122186 0 0)
(0.01217 0 0)
(0.0121211 0 0)
(0.0120718 0 0)
(0.0120221 0 0)
(0.0119719 0 0)
(0.0119212 0 0)
(0.01187 0 0)
(0.0118181 0 0)
(0.0117656 0 0)
(0.0117123 0 0)
(0.0116581 0 0)
(0.011603 0 0)
(0.0115468 0 0)
(0.0114894 0 0)
(0.0114304 0 0)
(0.0113698 0 0)
(0.0113071 0 0)
(0.0112419 0 0)
(0.0111736 0 0)
(0.0111016 0 0)
(0.0110248 0 0)
(0.0109417 0 0)
(0.0108501 0 0)
(0.0107469 0 0)
(0.0106269 0 0)
(0.0104812 0 0)
(0.0102934 0 0)
(0.0100297 0 0)
(0.00960676 0 0)
(0.00875776 0 0)
(0.00627384 0 0)
(0.00220314 0 0)
(1.68196e-05 0 0)
(4.9025e-14 0 0)
(0 0 0)
(0 0 0)
(0 0 0)
(0 0 0)
(0 0 0)
(0 0 0)
(0 0 0)
(0 0 0)
(0 0 0)
(0 0 0)
(0 0 0)
(0 0 0)
(0 0 0)
(0 0 0)
(0 0 0)
(0 0 0)
(0 0 0)
(0 0 0)
(0 0 0)
(0 0 0)
)
;

boundaryField
{
    inlet
    {
        type            fixedValue;
        value           uniform (0 0 0);
    }
    outlet
    {
        type            zeroGradient;
    }
    yzfaces
    {
        type            empty;
    }
}


// ************************************************************************* //
