/*--------------------------------*- C++ -*----------------------------------*\
  =========                 |
  \\      /  F ield         | OpenFOAM: The Open Source CFD Toolbox
   \\    /   O peration     | Website:  https://openfoam.org
    \\  /    A nd           | Version:  10
     \\/     M anipulation  |
\*---------------------------------------------------------------------------*/
FoamFile
{
    format      ascii;
    class       volVectorField;
    location    "0.54";
    object      Ua;
}
// * * * * * * * * * * * * * * * * * * * * * * * * * * * * * * * * * * * * * //

dimensions      [0 1 -1 0 0 0 0];

internalField   nonuniform List<vector> 
100
(
(0.00710288 0 0)
(0.0141663 0 0)
(0.0140871 0 0)
(0.0140079 0 0)
(0.0139287 0 0)
(0.0138497 0 0)
(0.0137709 0 0)
(0.0136921 0 0)
(0.0136134 0 0)
(0.0135346 0 0)
(0.0134558 0 0)
(0.0133769 0 0)
(0.0132979 0 0)
(0.0132186 0 0)
(0.013139 0 0)
(0.0130592 0 0)
(0.012979 0 0)
(0.0128983 0 0)
(0.0128171 0 0)
(0.0127354 0 0)
(0.0126531 0 0)
(0.0125701 0 0)
(0.0124862 0 0)
(0.0124015 0 0)
(0.0123158 0 0)
(0.0122289 0 0)
(0.0121407 0 0)
(0.012051 0 0)
(0.0119595 0 0)
(0.011866 0 0)
(0.01177 0 0)
(0.0116712 0 0)
(0.0115687 0 0)
(0.0114617 0 0)
(0.0113491 0 0)
(0.011229 0 0)
(0.0110987 0 0)
(0.0109543 0 0)
(0.0107888 0 0)
(0.0105903 0 0)
(0.0103353 0 0)
(0.00997082 0 0)
(0.0093501 0 0)
(0.00789912 0 0)
(0.00389508 0 0)
(0.000470091 0 0)
(1.14075e-08 0 0)
(0 0 0)
(0 0 0)
(0 0 0)
(0 0 0)
(0 0 0)
(0 0 0)
(0 0 0)
(0 0 0)
(0 0 0)
(0 0 0)
(0 0 0)
(0 0 0)
(0 0 0)
(0 0 0)
(0 0 0)
(0 0 0)
(0 0 0)
(0 0 0)
(0 0 0)
(0 0 0)
(0 0 0)
(0 0 0)
(0 0 0)
(0 0 0)
(0 0 0)
(0 0 0)
(0 0 0)
(0 0 0)
(0 0 0)
(0 0 0)
(0 0 0)
(0 0 0)
(0 0 0)
(0 0 0)
(0 0 0)
(0 0 0)
(0 0 0)
(0 0 0)
(0 0 0)
(0 0 0)
(0 0 0)
(0 0 0)
(0 0 0)
(0 0 0)
(0 0 0)
(0 0 0)
(0 0 0)
(0 0 0)
(0 0 0)
(0 0 0)
(0 0 0)
(0 0 0)
(0 0 0)
)
;

boundaryField
{
    inlet
    {
        type            fixedValue;
        value           uniform (0 0 0);
    }
    outlet
    {
        type            zeroGradient;
    }
    yzfaces
    {
        type            empty;
    }
}


// ************************************************************************* //
