/*--------------------------------*- C++ -*----------------------------------*\
  =========                 |
  \\      /  F ield         | OpenFOAM: The Open Source CFD Toolbox
   \\    /   O peration     | Website:  https://openfoam.org
    \\  /    A nd           | Version:  10
     \\/     M anipulation  |
\*---------------------------------------------------------------------------*/
FoamFile
{
    format      ascii;
    class       volVectorField;
    location    "0.54";
    object      Ub;
}
// * * * * * * * * * * * * * * * * * * * * * * * * * * * * * * * * * * * * * //

dimensions      [0 1 -1 0 0 0 0];

internalField   nonuniform List<vector> 
100
(
(3.84307e-05 0 0)
(0.000116349 0 0)
(0.000195489 0 0)
(0.000274759 0 0)
(0.000353916 0 0)
(0.000432915 0 0)
(0.000511779 0 0)
(0.000590547 0 0)
(0.000669272 0 0)
(0.000748003 0 0)
(0.000826795 0 0)
(0.000905698 0 0)
(0.000984763 0 0)
(0.00106404 0 0)
(0.00114359 0 0)
(0.00122345 0 0)
(0.00130368 0 0)
(0.00138434 0 0)
(0.00146549 0 0)
(0.0015472 0 0)
(0.00162953 0 0)
(0.00171257 0 0)
(0.0017964 0 0)
(0.00188112 0 0)
(0.00196686 0 0)
(0.00205375 0 0)
(0.00214195 0 0)
(0.00223166 0 0)
(0.00232312 0 0)
(0.00241664 0 0)
(0.00251259 0 0)
(0.00261148 0 0)
(0.00271395 0 0)
(0.00282089 0 0)
(0.00293354 0 0)
(0.00305366 0 0)
(0.0031839 0 0)
(0.00332836 0 0)
(0.00349382 0 0)
(0.00369231 0 0)
(0.00394736 0 0)
(0.00431181 0 0)
(0.00493253 0 0)
(0.00638352 0 0)
(0.0103875 0 0)
(0.0138125 0 0)
(0.0142826 0 0)
(0.0142826 0 0)
(0.0142826 0 0)
(0.0142826 0 0)
(0.0142826 0 0)
(0.0142826 0 0)
(0.0142826 0 0)
(0.0142826 0 0)
(0.0142826 0 0)
(0.0142826 0 0)
(0.0142826 0 0)
(0.0142826 0 0)
(0.0142826 0 0)
(0.0142826 0 0)
(0.0142826 0 0)
(0.0142826 0 0)
(0.0142826 0 0)
(0.0142826 0 0)
(0.0142826 0 0)
(0.0142826 0 0)
(0.0142826 0 0)
(0.0142826 0 0)
(0.0142826 0 0)
(0.0142826 0 0)
(0.0142826 0 0)
(0.0142826 0 0)
(0.0142826 0 0)
(0.0142826 0 0)
(0.0142826 0 0)
(0.0142826 0 0)
(0.0142826 0 0)
(0.0142826 0 0)
(0.0142826 0 0)
(0.0142826 0 0)
(0.0142826 0 0)
(0.0142826 0 0)
(0.0142826 0 0)
(0.0142826 0 0)
(0.0142826 0 0)
(0.0142826 0 0)
(0.0142826 0 0)
(0.0142826 0 0)
(0.0142826 0 0)
(0.0142826 0 0)
(0.0142826 0 0)
(0.0142826 0 0)
(0.0142826 0 0)
(0.0142826 0 0)
(0.0142826 0 0)
(0.0142826 0 0)
(0.0142826 0 0)
(0.0142826 0 0)
(0.0142826 0 0)
(0.0142826 0 0)
)
;

boundaryField
{
    inlet
    {
        type            fixedValue;
        value           uniform (0 0 0);
    }
    outlet
    {
        type            zeroGradient;
    }
    yzfaces
    {
        type            empty;
    }
}


// ************************************************************************* //
