/*--------------------------------*- C++ -*----------------------------------*\
  =========                 |
  \\      /  F ield         | OpenFOAM: The Open Source CFD Toolbox
   \\    /   O peration     | Website:  https://openfoam.org
    \\  /    A nd           | Version:  10
     \\/     M anipulation  |
\*---------------------------------------------------------------------------*/
FoamFile
{
    format      ascii;
    class       volVectorField;
    location    "1.29";
    object      Ub;
}
// * * * * * * * * * * * * * * * * * * * * * * * * * * * * * * * * * * * * * //

dimensions      [0 1 -1 0 0 0 0];

internalField   nonuniform List<vector> 
100
(
(1.52923e-05 0 0)
(4.67686e-05 0 0)
(7.94421e-05 0 0)
(0.000112541 0 0)
(0.000145801 0 0)
(0.000179109 0 0)
(0.000212409 0 0)
(0.000245674 0 0)
(0.00027889 0 0)
(0.000312052 0 0)
(0.000345157 0 0)
(0.000378206 0 0)
(0.000411203 0 0)
(0.00044415 0 0)
(0.000477052 0 0)
(0.000509912 0 0)
(0.000542736 0 0)
(0.000575527 0 0)
(0.000608289 0 0)
(0.000641028 0 0)
(0.000673748 0 0)
(0.000706451 0 0)
(0.000739143 0 0)
(0.000771828 0 0)
(0.000804508 0 0)
(0.000837189 0 0)
(0.000869873 0 0)
(0.000902564 0 0)
(0.000935266 0 0)
(0.000967981 0 0)
(0.00100071 0 0)
(0.00103347 0 0)
(0.00106625 0 0)
(0.00109905 0 0)
(0.00113189 0 0)
(0.00116476 0 0)
(0.00119766 0 0)
(0.00123061 0 0)
(0.0012636 0 0)
(0.00129664 0 0)
(0.00132972 0 0)
(0.00136286 0 0)
(0.00139606 0 0)
(0.00142931 0 0)
(0.00146263 0 0)
(0.00149602 0 0)
(0.00152948 0 0)
(0.00156301 0 0)
(0.00159661 0 0)
(0.0016303 0 0)
(0.00166408 0 0)
(0.00169795 0 0)
(0.00173191 0 0)
(0.00176597 0 0)
(0.00180013 0 0)
(0.0018344 0 0)
(0.00186879 0 0)
(0.00190329 0 0)
(0.00193793 0 0)
(0.00197269 0 0)
(0.00200759 0 0)
(0.00204264 0 0)
(0.00207785 0 0)
(0.00211321 0 0)
(0.00214875 0 0)
(0.00218446 0 0)
(0.00222037 0 0)
(0.00225648 0 0)
(0.00229281 0 0)
(0.00232937 0 0)
(0.00236618 0 0)
(0.00240325 0 0)
(0.0024406 0 0)
(0.00247826 0 0)
(0.00251624 0 0)
(0.00255459 0 0)
(0.00259332 0 0)
(0.00263248 0 0)
(0.00267211 0 0)
(0.00271225 0 0)
(0.00275297 0 0)
(0.00279433 0 0)
(0.0028364 0 0)
(0.00287929 0 0)
(0.00292311 0 0)
(0.00296799 0 0)
(0.0030141 0 0)
(0.00306165 0 0)
(0.00311091 0 0)
(0.00316222 0 0)
(0.003216 0 0)
(0.00327285 0 0)
(0.00333352 0 0)
(0.0033991 0 0)
(0.00347109 0 0)
(0.00355174 0 0)
(0.00364445 0 0)
(0.0037547 0 0)
(0.00389188 0 0)
(0.00407348 0 0)
)
;

boundaryField
{
    inlet
    {
        type            fixedValue;
        value           uniform (0 0 0);
    }
    outlet
    {
        type            zeroGradient;
    }
    yzfaces
    {
        type            empty;
    }
}


// ************************************************************************* //
