/*--------------------------------*- C++ -*----------------------------------*\
  =========                 |
  \\      /  F ield         | OpenFOAM: The Open Source CFD Toolbox
   \\    /   O peration     | Website:  https://openfoam.org
    \\  /    A nd           | Version:  10
     \\/     M anipulation  |
\*---------------------------------------------------------------------------*/
FoamFile
{
    format      ascii;
    class       volVectorField;
    location    "1.46";
    object      Ub;
}
// * * * * * * * * * * * * * * * * * * * * * * * * * * * * * * * * * * * * * //

dimensions      [0 1 -1 0 0 0 0];

internalField   nonuniform List<vector> 
100
(
(1.3376e-05 0 0)
(4.09734e-05 0 0)
(6.97217e-05 0 0)
(9.89046e-05 0 0)
(0.00012827 0 0)
(0.000157706 0 0)
(0.000187154 0 0)
(0.000216586 0 0)
(0.000245984 0 0)
(0.000275341 0 0)
(0.000304653 0 0)
(0.000333918 0 0)
(0.000363136 0 0)
(0.000392311 0 0)
(0.000421443 0 0)
(0.000450535 0 0)
(0.000479591 0 0)
(0.000508614 0 0)
(0.000537606 0 0)
(0.00056657 0 0)
(0.00059551 0 0)
(0.000624429 0 0)
(0.000653329 0 0)
(0.000682214 0 0)
(0.000711087 0 0)
(0.000739949 0 0)
(0.000768804 0 0)
(0.000797655 0 0)
(0.000826504 0 0)
(0.000855353 0 0)
(0.000884206 0 0)
(0.000913064 0 0)
(0.000941929 0 0)
(0.000970805 0 0)
(0.000999694 0 0)
(0.0010286 0 0)
(0.00105752 0 0)
(0.00108646 0 0)
(0.00111542 0 0)
(0.0011444 0 0)
(0.00117341 0 0)
(0.00120245 0 0)
(0.00123152 0 0)
(0.00126062 0 0)
(0.00128975 0 0)
(0.00131893 0 0)
(0.00134814 0 0)
(0.00137739 0 0)
(0.00140668 0 0)
(0.00143602 0 0)
(0.00146541 0 0)
(0.00149485 0 0)
(0.00152434 0 0)
(0.00155389 0 0)
(0.00158349 0 0)
(0.00161315 0 0)
(0.00164288 0 0)
(0.00167267 0 0)
(0.00170253 0 0)
(0.00173246 0 0)
(0.00176246 0 0)
(0.00179254 0 0)
(0.0018227 0 0)
(0.00185295 0 0)
(0.00188328 0 0)
(0.00191371 0 0)
(0.00194423 0 0)
(0.00197484 0 0)
(0.00200556 0 0)
(0.00203639 0 0)
(0.00206734 0 0)
(0.0020984 0 0)
(0.00212958 0 0)
(0.0021609 0 0)
(0.00219235 0 0)
(0.00222394 0 0)
(0.00225569 0 0)
(0.0022876 0 0)
(0.00231967 0 0)
(0.00235192 0 0)
(0.00238436 0 0)
(0.00241701 0 0)
(0.00244987 0 0)
(0.00248295 0 0)
(0.00251628 0 0)
(0.00254988 0 0)
(0.00258376 0 0)
(0.00261794 0 0)
(0.00265246 0 0)
(0.00268734 0 0)
(0.00272262 0 0)
(0.00275833 0 0)
(0.00279453 0 0)
(0.00283126 0 0)
(0.00286858 0 0)
(0.00290657 0 0)
(0.00294532 0 0)
(0.00298493 0 0)
(0.00302552 0 0)
(0.00306725 0 0)
)
;

boundaryField
{
    inlet
    {
        type            fixedValue;
        value           uniform (0 0 0);
    }
    outlet
    {
        type            zeroGradient;
    }
    yzfaces
    {
        type            empty;
    }
}


// ************************************************************************* //
