/*--------------------------------*- C++ -*----------------------------------*\
  =========                 |
  \\      /  F ield         | OpenFOAM: The Open Source CFD Toolbox
   \\    /   O peration     | Website:  https://openfoam.org
    \\  /    A nd           | Version:  10
     \\/     M anipulation  |
\*---------------------------------------------------------------------------*/
FoamFile
{
    format      ascii;
    class       volVectorField;
    location    "1.395";
    object      Ua;
}
// * * * * * * * * * * * * * * * * * * * * * * * * * * * * * * * * * * * * * //

dimensions      [0 1 -1 0 0 0 0];

internalField   nonuniform List<vector> 
100
(
(0.00712482 0 0)
(0.0142347 0 0)
(0.0142046 0 0)
(0.014174 0 0)
(0.0141433 0 0)
(0.0141125 0 0)
(0.0140817 0 0)
(0.0140509 0 0)
(0.0140201 0 0)
(0.0139894 0 0)
(0.0139588 0 0)
(0.0139282 0 0)
(0.0138976 0 0)
(0.0138671 0 0)
(0.0138366 0 0)
(0.0138062 0 0)
(0.0137758 0 0)
(0.0137455 0 0)
(0.0137151 0 0)
(0.0136848 0 0)
(0.0136546 0 0)
(0.0136243 0 0)
(0.0135941 0 0)
(0.0135639 0 0)
(0.0135336 0 0)
(0.0135034 0 0)
(0.0134732 0 0)
(0.013443 0 0)
(0.0134128 0 0)
(0.0133826 0 0)
(0.0133524 0 0)
(0.0133222 0 0)
(0.0132919 0 0)
(0.0132617 0 0)
(0.0132314 0 0)
(0.0132011 0 0)
(0.0131708 0 0)
(0.0131404 0 0)
(0.0131101 0 0)
(0.0130797 0 0)
(0.0130492 0 0)
(0.0130188 0 0)
(0.0129883 0 0)
(0.0129577 0 0)
(0.0129271 0 0)
(0.0128965 0 0)
(0.0128658 0 0)
(0.012835 0 0)
(0.0128042 0 0)
(0.0127734 0 0)
(0.0127425 0 0)
(0.0127115 0 0)
(0.0126805 0 0)
(0.0126494 0 0)
(0.0126182 0 0)
(0.012587 0 0)
(0.0125556 0 0)
(0.0125242 0 0)
(0.0124927 0 0)
(0.0124611 0 0)
(0.0124295 0 0)
(0.0123977 0 0)
(0.0123658 0 0)
(0.0123339 0 0)
(0.0123018 0 0)
(0.0122696 0 0)
(0.0122372 0 0)
(0.0122048 0 0)
(0.0121722 0 0)
(0.0121395 0 0)
(0.0121066 0 0)
(0.0120736 0 0)
(0.0120404 0 0)
(0.012007 0 0)
(0.0119735 0 0)
(0.0119397 0 0)
(0.0119058 0 0)
(0.0118716 0 0)
(0.0118372 0 0)
(0.0118026 0 0)
(0.0117676 0 0)
(0.0117324 0 0)
(0.0116969 0 0)
(0.011661 0 0)
(0.0116248 0 0)
(0.0115881 0 0)
(0.0115511 0 0)
(0.0115135 0 0)
(0.0114753 0 0)
(0.0114366 0 0)
(0.0113972 0 0)
(0.011357 0 0)
(0.0113159 0 0)
(0.0112738 0 0)
(0.0112305 0 0)
(0.0111859 0 0)
(0.0111397 0 0)
(0.0110915 0 0)
(0.011041 0 0)
(0.0109877 0 0)
)
;

boundaryField
{
    inlet
    {
        type            fixedValue;
        value           uniform (0 0 0);
    }
    outlet
    {
        type            zeroGradient;
    }
    yzfaces
    {
        type            empty;
    }
}


// ************************************************************************* //
