/*--------------------------------*- C++ -*----------------------------------*\
  =========                 |
  \\      /  F ield         | OpenFOAM: The Open Source CFD Toolbox
   \\    /   O peration     | Website:  https://openfoam.org
    \\  /    A nd           | Version:  10
     \\/     M anipulation  |
\*---------------------------------------------------------------------------*/
FoamFile
{
    format      ascii;
    class       volVectorField;
    location    "1.435";
    object      Ub;
}
// * * * * * * * * * * * * * * * * * * * * * * * * * * * * * * * * * * * * * //

dimensions      [0 1 -1 0 0 0 0];

internalField   nonuniform List<vector> 
100
(
(1.36288e-05 0 0)
(4.17386e-05 0 0)
(7.1006e-05 0 0)
(0.000100707 0 0)
(0.000130588 0 0)
(0.000160536 0 0)
(0.000190495 0 0)
(0.000220434 0 0)
(0.000250338 0 0)
(0.000280199 0 0)
(0.000310012 0 0)
(0.000339778 0 0)
(0.000369496 0 0)
(0.000399169 0 0)
(0.0004288 0 0)
(0.00045839 0 0)
(0.000487944 0 0)
(0.000517464 0 0)
(0.000546954 0 0)
(0.000576416 0 0)
(0.000605855 0 0)
(0.000635273 0 0)
(0.000664673 0 0)
(0.000694058 0 0)
(0.000723432 0 0)
(0.000752797 0 0)
(0.000782156 0 0)
(0.000811511 0 0)
(0.000840866 0 0)
(0.000870223 0 0)
(0.000899585 0 0)
(0.000928954 0 0)
(0.000958332 0 0)
(0.000987723 0 0)
(0.00101713 0 0)
(0.00104655 0 0)
(0.00107599 0 0)
(0.00110545 0 0)
(0.00113494 0 0)
(0.00116445 0 0)
(0.00119399 0 0)
(0.00122357 0 0)
(0.00125317 0 0)
(0.00128281 0 0)
(0.00131249 0 0)
(0.00134221 0 0)
(0.00137197 0 0)
(0.00140177 0 0)
(0.00143162 0 0)
(0.00146152 0 0)
(0.00149148 0 0)
(0.00152149 0 0)
(0.00155155 0 0)
(0.00158167 0 0)
(0.00161186 0 0)
(0.00164211 0 0)
(0.00167243 0 0)
(0.00170282 0 0)
(0.00173329 0 0)
(0.00176383 0 0)
(0.00179445 0 0)
(0.00182515 0 0)
(0.00185595 0 0)
(0.00188683 0 0)
(0.00191781 0 0)
(0.00194889 0 0)
(0.00198007 0 0)
(0.00201137 0 0)
(0.00204277 0 0)
(0.0020743 0 0)
(0.00210595 0 0)
(0.00213773 0 0)
(0.00216964 0 0)
(0.00220171 0 0)
(0.00223392 0 0)
(0.00226629 0 0)
(0.00229884 0 0)
(0.00233156 0 0)
(0.00236447 0 0)
(0.00239759 0 0)
(0.00243092 0 0)
(0.00246448 0 0)
(0.00249829 0 0)
(0.00253236 0 0)
(0.00256672 0 0)
(0.00260138 0 0)
(0.00263638 0 0)
(0.00267174 0 0)
(0.0027075 0 0)
(0.00274369 0 0)
(0.00278037 0 0)
(0.00281758 0 0)
(0.00285538 0 0)
(0.00289386 0 0)
(0.00293309 0 0)
(0.00297318 0 0)
(0.00301425 0 0)
(0.00305646 0 0)
(0.0031 0 0)
(0.00314511 0 0)
)
;

boundaryField
{
    inlet
    {
        type            fixedValue;
        value           uniform (0 0 0);
    }
    outlet
    {
        type            zeroGradient;
    }
    yzfaces
    {
        type            empty;
    }
}


// ************************************************************************* //
