/*--------------------------------*- C++ -*----------------------------------*\
  =========                 |
  \\      /  F ield         | OpenFOAM: The Open Source CFD Toolbox
   \\    /   O peration     | Website:  https://openfoam.org
    \\  /    A nd           | Version:  10
     \\/     M anipulation  |
\*---------------------------------------------------------------------------*/
FoamFile
{
    format      ascii;
    class       volVectorField;
    location    "1.305";
    object      Ub;
}
// * * * * * * * * * * * * * * * * * * * * * * * * * * * * * * * * * * * * * //

dimensions      [0 1 -1 0 0 0 0];

internalField   nonuniform List<vector> 
100
(
(1.51028e-05 0 0)
(4.61958e-05 0 0)
(7.8482e-05 0 0)
(0.000111195 0 0)
(0.000144071 0 0)
(0.000176997 0 0)
(0.000209918 0 0)
(0.000242805 0 0)
(0.000275645 0 0)
(0.000308431 0 0)
(0.000341162 0 0)
(0.000373838 0 0)
(0.000406462 0 0)
(0.000439037 0 0)
(0.000471566 0 0)
(0.000504054 0 0)
(0.000536506 0 0)
(0.000568924 0 0)
(0.000601314 0 0)
(0.00063368 0 0)
(0.000666025 0 0)
(0.000698354 0 0)
(0.00073067 0 0)
(0.000762978 0 0)
(0.000795281 0 0)
(0.000827583 0 0)
(0.000859887 0 0)
(0.000892196 0 0)
(0.000924515 0 0)
(0.000956846 0 0)
(0.000989193 0 0)
(0.00102156 0 0)
(0.00105395 0 0)
(0.00108636 0 0)
(0.0011188 0 0)
(0.00115128 0 0)
(0.00118378 0 0)
(0.00121633 0 0)
(0.00124892 0 0)
(0.00128155 0 0)
(0.00131422 0 0)
(0.00134695 0 0)
(0.00137973 0 0)
(0.00141257 0 0)
(0.00144547 0 0)
(0.00147843 0 0)
(0.00151146 0 0)
(0.00154455 0 0)
(0.00157772 0 0)
(0.00161097 0 0)
(0.0016443 0 0)
(0.00167772 0 0)
(0.00171122 0 0)
(0.00174482 0 0)
(0.00177852 0 0)
(0.00181232 0 0)
(0.00184622 0 0)
(0.00188024 0 0)
(0.00191438 0 0)
(0.00194864 0 0)
(0.00198304 0 0)
(0.00201757 0 0)
(0.00205224 0 0)
(0.00208707 0 0)
(0.00212205 0 0)
(0.00215721 0 0)
(0.00219254 0 0)
(0.00222806 0 0)
(0.00226378 0 0)
(0.00229972 0 0)
(0.00233588 0 0)
(0.00237228 0 0)
(0.00240895 0 0)
(0.00244589 0 0)
(0.00248313 0 0)
(0.00252069 0 0)
(0.00255861 0 0)
(0.00259691 0 0)
(0.00263562 0 0)
(0.0026748 0 0)
(0.00271448 0 0)
(0.00275472 0 0)
(0.00279558 0 0)
(0.00283715 0 0)
(0.00287951 0 0)
(0.00292277 0 0)
(0.00296706 0 0)
(0.00301256 0 0)
(0.00305945 0 0)
(0.00310799 0 0)
(0.00315851 0 0)
(0.00321141 0 0)
(0.00326725 0 0)
(0.00332676 0 0)
(0.00339094 0 0)
(0.00346122 0 0)
(0.00353966 0 0)
(0.00362941 0 0)
(0.00373545 0 0)
(0.00386621 0 0)
)
;

boundaryField
{
    inlet
    {
        type            fixedValue;
        value           uniform (0 0 0);
    }
    outlet
    {
        type            zeroGradient;
    }
    yzfaces
    {
        type            empty;
    }
}


// ************************************************************************* //
