/*--------------------------------*- C++ -*----------------------------------*\
  =========                 |
  \\      /  F ield         | OpenFOAM: The Open Source CFD Toolbox
   \\    /   O peration     | Website:  https://openfoam.org
    \\  /    A nd           | Version:  10
     \\/     M anipulation  |
\*---------------------------------------------------------------------------*/
FoamFile
{
    format      ascii;
    class       volVectorField;
    location    "0.79";
    object      Ua;
}
// * * * * * * * * * * * * * * * * * * * * * * * * * * * * * * * * * * * * * //

dimensions      [0 1 -1 0 0 0 0];

internalField   nonuniform List<vector> 
100
(
(0.0071148 0 0)
(0.0142028 0 0)
(0.0141488 0 0)
(0.0140946 0 0)
(0.0140404 0 0)
(0.0139862 0 0)
(0.0139321 0 0)
(0.0138781 0 0)
(0.0138243 0 0)
(0.0137705 0 0)
(0.0137168 0 0)
(0.0136631 0 0)
(0.0136095 0 0)
(0.0135559 0 0)
(0.0135023 0 0)
(0.0134487 0 0)
(0.0133951 0 0)
(0.0133414 0 0)
(0.0132877 0 0)
(0.0132338 0 0)
(0.0131799 0 0)
(0.0131259 0 0)
(0.0130718 0 0)
(0.0130175 0 0)
(0.012963 0 0)
(0.0129084 0 0)
(0.0128536 0 0)
(0.0127986 0 0)
(0.0127434 0 0)
(0.0126879 0 0)
(0.0126322 0 0)
(0.0125762 0 0)
(0.0125199 0 0)
(0.0124632 0 0)
(0.0124062 0 0)
(0.0123488 0 0)
(0.0122909 0 0)
(0.0122326 0 0)
(0.0121738 0 0)
(0.0121144 0 0)
(0.0120544 0 0)
(0.0119937 0 0)
(0.0119322 0 0)
(0.0118699 0 0)
(0.0118066 0 0)
(0.0117422 0 0)
(0.0116766 0 0)
(0.0116096 0 0)
(0.0115409 0 0)
(0.0114701 0 0)
(0.011397 0 0)
(0.0113211 0 0)
(0.0112415 0 0)
(0.0111575 0 0)
(0.0110677 0 0)
(0.0109702 0 0)
(0.0108622 0 0)
(0.0107393 0 0)
(0.0105942 0 0)
(0.0104135 0 0)
(0.0101709 0 0)
(0.00980569 0 0)
(0.00914175 0 0)
(0.00744957 0 0)
(0.00330416 0 0)
(0.000205515 0 0)
(4.65089e-10 0 0)
(0 0 0)
(0 0 0)
(0 0 0)
(0 0 0)
(0 0 0)
(0 0 0)
(0 0 0)
(0 0 0)
(0 0 0)
(0 0 0)
(0 0 0)
(0 0 0)
(0 0 0)
(0 0 0)
(0 0 0)
(0 0 0)
(0 0 0)
(0 0 0)
(0 0 0)
(0 0 0)
(0 0 0)
(0 0 0)
(0 0 0)
(0 0 0)
(0 0 0)
(0 0 0)
(0 0 0)
(0 0 0)
(0 0 0)
(0 0 0)
(0 0 0)
(0 0 0)
(0 0 0)
)
;

boundaryField
{
    inlet
    {
        type            fixedValue;
        value           uniform (0 0 0);
    }
    outlet
    {
        type            zeroGradient;
    }
    yzfaces
    {
        type            empty;
    }
}


// ************************************************************************* //
