/*--------------------------------*- C++ -*----------------------------------*\
  =========                 |
  \\      /  F ield         | OpenFOAM: The Open Source CFD Toolbox
   \\    /   O peration     | Website:  https://openfoam.org
    \\  /    A nd           | Version:  10
     \\/     M anipulation  |
\*---------------------------------------------------------------------------*/
FoamFile
{
    format      ascii;
    class       volVectorField;
    location    "0.42";
    object      Ub;
}
// * * * * * * * * * * * * * * * * * * * * * * * * * * * * * * * * * * * * * //

dimensions      [0 1 -1 0 0 0 0];

internalField   nonuniform List<vector> 
100
(
(4.9857e-05 0 0)
(0.000150586 0 0)
(0.000252413 0 0)
(0.000354243 0 0)
(0.000455914 0 0)
(0.00055746 0 0)
(0.000658971 0 0)
(0.000760554 0 0)
(0.000862319 0 0)
(0.000964376 0 0)
(0.00106684 0 0)
(0.00116982 0 0)
(0.00127344 0 0)
(0.00137783 0 0)
(0.00148313 0 0)
(0.00158949 0 0)
(0.00169709 0 0)
(0.00180612 0 0)
(0.00191685 0 0)
(0.00202954 0 0)
(0.00214458 0 0)
(0.0022624 0 0)
(0.00238362 0 0)
(0.002509 0 0)
(0.00263963 0 0)
(0.00277701 0 0)
(0.00292334 0 0)
(0.00308199 0 0)
(0.00325834 0 0)
(0.00346163 0 0)
(0.00370906 0 0)
(0.00403681 0 0)
(0.00453523 0 0)
(0.00550286 0 0)
(0.00829761 0 0)
(0.0123508 0 0)
(0.0142759 0 0)
(0.0142833 0 0)
(0.0142833 0 0)
(0.0142833 0 0)
(0.0142833 0 0)
(0.0142833 0 0)
(0.0142833 0 0)
(0.0142833 0 0)
(0.0142833 0 0)
(0.0142833 0 0)
(0.0142833 0 0)
(0.0142833 0 0)
(0.0142833 0 0)
(0.0142833 0 0)
(0.0142833 0 0)
(0.0142833 0 0)
(0.0142833 0 0)
(0.0142833 0 0)
(0.0142833 0 0)
(0.0142833 0 0)
(0.0142833 0 0)
(0.0142833 0 0)
(0.0142833 0 0)
(0.0142833 0 0)
(0.0142833 0 0)
(0.0142833 0 0)
(0.0142833 0 0)
(0.0142833 0 0)
(0.0142833 0 0)
(0.0142833 0 0)
(0.0142833 0 0)
(0.0142833 0 0)
(0.0142833 0 0)
(0.0142833 0 0)
(0.0142833 0 0)
(0.0142833 0 0)
(0.0142833 0 0)
(0.0142833 0 0)
(0.0142833 0 0)
(0.0142833 0 0)
(0.0142833 0 0)
(0.0142833 0 0)
(0.0142833 0 0)
(0.0142833 0 0)
(0.0142833 0 0)
(0.0142833 0 0)
(0.0142833 0 0)
(0.0142833 0 0)
(0.0142833 0 0)
(0.0142833 0 0)
(0.0142833 0 0)
(0.0142833 0 0)
(0.0142833 0 0)
(0.0142833 0 0)
(0.0142833 0 0)
(0.0142833 0 0)
(0.0142833 0 0)
(0.0142833 0 0)
(0.0142833 0 0)
(0.0142833 0 0)
(0.0142833 0 0)
(0.0142833 0 0)
(0.0142833 0 0)
(0.0142833 0 0)
)
;

boundaryField
{
    inlet
    {
        type            fixedValue;
        value           uniform (0 0 0);
    }
    outlet
    {
        type            zeroGradient;
    }
    yzfaces
    {
        type            empty;
    }
}


// ************************************************************************* //
