/*--------------------------------*- C++ -*----------------------------------*\
  =========                 |
  \\      /  F ield         | OpenFOAM: The Open Source CFD Toolbox
   \\    /   O peration     | Website:  https://openfoam.org
    \\  /    A nd           | Version:  10
     \\/     M anipulation  |
\*---------------------------------------------------------------------------*/
FoamFile
{
    format      ascii;
    class       volVectorField;
    location    "1.255";
    object      Ub;
}
// * * * * * * * * * * * * * * * * * * * * * * * * * * * * * * * * * * * * * //

dimensions      [0 1 -1 0 0 0 0];

internalField   nonuniform List<vector> 
100
(
(1.57524e-05 0 0)
(4.81588e-05 0 0)
(8.17717e-05 0 0)
(0.000115807 0 0)
(0.000149998 0 0)
(0.000184232 0 0)
(0.000218452 0 0)
(0.000252634 0 0)
(0.000286763 0 0)
(0.000320834 0 0)
(0.000354846 0 0)
(0.000388801 0 0)
(0.000422702 0 0)
(0.000456553 0 0)
(0.000490358 0 0)
(0.000524122 0 0)
(0.000557849 0 0)
(0.000591544 0 0)
(0.000625213 0 0)
(0.000658858 0 0)
(0.000692486 0 0)
(0.0007261 0 0)
(0.000759705 0 0)
(0.000793305 0 0)
(0.000826904 0 0)
(0.000860505 0 0)
(0.000894114 0 0)
(0.000927733 0 0)
(0.000961366 0 0)
(0.000995018 0 0)
(0.00102869 0 0)
(0.00106239 0 0)
(0.00109612 0 0)
(0.00112988 0 0)
(0.00116367 0 0)
(0.00119751 0 0)
(0.00123139 0 0)
(0.00126531 0 0)
(0.00129929 0 0)
(0.00133331 0 0)
(0.0013674 0 0)
(0.00140154 0 0)
(0.00143575 0 0)
(0.00147003 0 0)
(0.00150438 0 0)
(0.00153881 0 0)
(0.00157332 0 0)
(0.00160791 0 0)
(0.00164259 0 0)
(0.00167736 0 0)
(0.00171224 0 0)
(0.00174721 0 0)
(0.00178229 0 0)
(0.00181749 0 0)
(0.0018528 0 0)
(0.00188824 0 0)
(0.00192381 0 0)
(0.00195952 0 0)
(0.00199538 0 0)
(0.00203139 0 0)
(0.00206756 0 0)
(0.0021039 0 0)
(0.00214042 0 0)
(0.00217713 0 0)
(0.00221405 0 0)
(0.00225118 0 0)
(0.00228854 0 0)
(0.00232614 0 0)
(0.00236401 0 0)
(0.00240215 0 0)
(0.0024406 0 0)
(0.00247938 0 0)
(0.00251851 0 0)
(0.00255802 0 0)
(0.00259796 0 0)
(0.00263835 0 0)
(0.00267926 0 0)
(0.00272072 0 0)
(0.00276281 0 0)
(0.00280561 0 0)
(0.0028492 0 0)
(0.00289369 0 0)
(0.00293921 0 0)
(0.00298592 0 0)
(0.00303403 0 0)
(0.00308378 0 0)
(0.0031355 0 0)
(0.00318958 0 0)
(0.00324658 0 0)
(0.0033072 0 0)
(0.00337245 0 0)
(0.00344372 0 0)
(0.00352304 0 0)
(0.00361348 0 0)
(0.00371992 0 0)
(0.0038506 0 0)
(0.00402054 0 0)
(0.00426042 0 0)
(0.00464352 0 0)
(0.00539495 0 0)
)
;

boundaryField
{
    inlet
    {
        type            fixedValue;
        value           uniform (0 0 0);
    }
    outlet
    {
        type            zeroGradient;
    }
    yzfaces
    {
        type            empty;
    }
}


// ************************************************************************* //
