/*--------------------------------*- C++ -*----------------------------------*\
  =========                 |
  \\      /  F ield         | OpenFOAM: The Open Source CFD Toolbox
   \\    /   O peration     | Website:  https://openfoam.org
    \\  /    A nd           | Version:  10
     \\/     M anipulation  |
\*---------------------------------------------------------------------------*/
FoamFile
{
    format      ascii;
    class       volScalarField;
    location    "0.97";
    object      yH2O;
}
// * * * * * * * * * * * * * * * * * * * * * * * * * * * * * * * * * * * * * //

dimensions      [0 0 0 0 0 0 0];

internalField   nonuniform List<scalar> 
100
(
0.00192962
0.00192962
0.00192963
0.00192963
0.00192963
0.00192964
0.00192964
0.00192965
0.00192965
0.00192966
0.00192966
0.00192967
0.00192967
0.00192968
0.00192968
0.00192969
0.0019297
0.0019297
0.00192971
0.00192972
0.00192973
0.00192974
0.00192974
0.00192975
0.00192976
0.00192977
0.00192978
0.00192979
0.0019298
0.00192981
0.00192982
0.00192983
0.00192984
0.00192985
0.00192986
0.00192987
0.00192988
0.00192989
0.0019299
0.00192992
0.00192993
0.00192994
0.00192995
0.00192996
0.00192998
0.00192999
0.00193
0.00193002
0.00193003
0.00193004
0.00193006
0.00193007
0.00193008
0.0019301
0.00193011
0.00193013
0.00193014
0.00193016
0.00193017
0.00193019
0.0019302
0.00193022
0.00193024
0.00193025
0.00193027
0.00193029
0.0019303
0.00193032
0.00193034
0.00193036
0.00193037
0.00193039
0.00193041
0.00193043
0.00193045
0.00193047
0.00193049
0.00193052
0.00193055
0.00193058
1
1
1
1
1
1
1
1
1
1
1
1
1
1
1
1
1
1
1
1
)
;

boundaryField
{
    inlet
    {
        type            calculated;
        value           uniform 0;
    }
    outlet
    {
        type            calculated;
        value           uniform 1;
    }
    yzfaces
    {
        type            empty;
    }
}


// ************************************************************************* //
