/*--------------------------------*- C++ -*----------------------------------*\
  =========                 |
  \\      /  F ield         | OpenFOAM: The Open Source CFD Toolbox
   \\    /   O peration     | Website:  https://openfoam.org
    \\  /    A nd           | Version:  10
     \\/     M anipulation  |
\*---------------------------------------------------------------------------*/
FoamFile
{
    format      ascii;
    class       volVectorField;
    location    "1.31";
    object      Ub;
}
// * * * * * * * * * * * * * * * * * * * * * * * * * * * * * * * * * * * * * //

dimensions      [0 1 -1 0 0 0 0];

internalField   nonuniform List<vector> 
100
(
(1.50406e-05 0 0)
(4.60078e-05 0 0)
(7.81669e-05 0 0)
(0.000110753 0 0)
(0.000143503 0 0)
(0.000176304 0 0)
(0.0002091 0 0)
(0.000241863 0 0)
(0.000274579 0 0)
(0.000307242 0 0)
(0.00033985 0 0)
(0.000372404 0 0)
(0.000404905 0 0)
(0.000437358 0 0)
(0.000469765 0 0)
(0.000502132 0 0)
(0.000534461 0 0)
(0.000566757 0 0)
(0.000599025 0 0)
(0.000631268 0 0)
(0.00066349 0 0)
(0.000695696 0 0)
(0.000727889 0 0)
(0.000760073 0 0)
(0.000792253 0 0)
(0.00082443 0 0)
(0.000856609 0 0)
(0.000888794 0 0)
(0.000920987 0 0)
(0.000953192 0 0)
(0.000985412 0 0)
(0.00101765 0 0)
(0.00104991 0 0)
(0.0010822 0 0)
(0.00111451 0 0)
(0.00114685 0 0)
(0.00117923 0 0)
(0.00121164 0 0)
(0.0012441 0 0)
(0.0012766 0 0)
(0.00130914 0 0)
(0.00134173 0 0)
(0.00137438 0 0)
(0.00140708 0 0)
(0.00143984 0 0)
(0.00147266 0 0)
(0.00150555 0 0)
(0.0015385 0 0)
(0.00157153 0 0)
(0.00160464 0 0)
(0.00163782 0 0)
(0.00167109 0 0)
(0.00170444 0 0)
(0.00173789 0 0)
(0.00177144 0 0)
(0.00180508 0 0)
(0.00183883 0 0)
(0.00187269 0 0)
(0.00190667 0 0)
(0.00194077 0 0)
(0.001975 0 0)
(0.00200936 0 0)
(0.00204386 0 0)
(0.00207851 0 0)
(0.00211332 0 0)
(0.00214829 0 0)
(0.00218343 0 0)
(0.00221877 0 0)
(0.00225429 0 0)
(0.00229003 0 0)
(0.00232598 0 0)
(0.00236217 0 0)
(0.00239861 0 0)
(0.00243532 0 0)
(0.00247233 0 0)
(0.00250964 0 0)
(0.0025473 0 0)
(0.00258532 0 0)
(0.00262375 0 0)
(0.00266262 0 0)
(0.00270197 0 0)
(0.00274186 0 0)
(0.00278235 0 0)
(0.00282351 0 0)
(0.00286542 0 0)
(0.00290819 0 0)
(0.00295193 0 0)
(0.00299681 0 0)
(0.003043 0 0)
(0.00309073 0 0)
(0.0031403 0 0)
(0.00319208 0 0)
(0.00324656 0 0)
(0.00330439 0 0)
(0.00336645 0 0)
(0.00343399 0 0)
(0.00350877 0 0)
(0.00359346 0 0)
(0.00369216 0 0)
(0.00381168 0 0)
)
;

boundaryField
{
    inlet
    {
        type            fixedValue;
        value           uniform (0 0 0);
    }
    outlet
    {
        type            zeroGradient;
    }
    yzfaces
    {
        type            empty;
    }
}


// ************************************************************************* //
