/*--------------------------------*- C++ -*----------------------------------*\
  =========                 |
  \\      /  F ield         | OpenFOAM: The Open Source CFD Toolbox
   \\    /   O peration     | Website:  https://openfoam.org
    \\  /    A nd           | Version:  10
     \\/     M anipulation  |
\*---------------------------------------------------------------------------*/
FoamFile
{
    format      ascii;
    class       volVectorField;
    location    "1.075";
    object      Ua;
}
// * * * * * * * * * * * * * * * * * * * * * * * * * * * * * * * * * * * * * //

dimensions      [0 1 -1 0 0 0 0];

internalField   nonuniform List<vector> 
100
(
(0.00712119 0 0)
(0.0142228 0 0)
(0.0141834 0 0)
(0.0141436 0 0)
(0.0141037 0 0)
(0.0140638 0 0)
(0.0140239 0 0)
(0.013984 0 0)
(0.0139443 0 0)
(0.0139046 0 0)
(0.013865 0 0)
(0.0138255 0 0)
(0.013786 0 0)
(0.0137466 0 0)
(0.0137072 0 0)
(0.0136678 0 0)
(0.0136285 0 0)
(0.0135892 0 0)
(0.0135499 0 0)
(0.0135106 0 0)
(0.0134714 0 0)
(0.0134321 0 0)
(0.0133928 0 0)
(0.0133535 0 0)
(0.0133142 0 0)
(0.0132748 0 0)
(0.0132354 0 0)
(0.013196 0 0)
(0.0131565 0 0)
(0.013117 0 0)
(0.0130774 0 0)
(0.0130377 0 0)
(0.012998 0 0)
(0.0129582 0 0)
(0.0129183 0 0)
(0.0128784 0 0)
(0.0128383 0 0)
(0.0127982 0 0)
(0.0127579 0 0)
(0.0127175 0 0)
(0.012677 0 0)
(0.0126364 0 0)
(0.0125957 0 0)
(0.0125548 0 0)
(0.0125137 0 0)
(0.0124725 0 0)
(0.0124311 0 0)
(0.0123895 0 0)
(0.0123478 0 0)
(0.0123058 0 0)
(0.0122637 0 0)
(0.0122213 0 0)
(0.0121786 0 0)
(0.0121357 0 0)
(0.0120925 0 0)
(0.012049 0 0)
(0.0120052 0 0)
(0.011961 0 0)
(0.0119165 0 0)
(0.0118716 0 0)
(0.0118262 0 0)
(0.0117803 0 0)
(0.0117338 0 0)
(0.0116868 0 0)
(0.0116391 0 0)
(0.0115907 0 0)
(0.0115414 0 0)
(0.0114912 0 0)
(0.0114398 0 0)
(0.0113872 0 0)
(0.0113332 0 0)
(0.0112774 0 0)
(0.0112195 0 0)
(0.0111592 0 0)
(0.0110957 0 0)
(0.0110284 0 0)
(0.0109562 0 0)
(0.0108775 0 0)
(0.0107901 0 0)
(0.0106907 0 0)
(0.0105736 0 0)
(0.0104297 0 0)
(0.0102412 0 0)
(0.00997111 0 0)
(0.00952669 0 0)
(0.0085989 0 0)
(0.00579043 0 0)
(0.00181913 0 0)
(5.59713e-06 0 0)
(9.83588e-16 0 0)
(0 0 0)
(0 0 0)
(0 0 0)
(0 0 0)
(0 0 0)
(0 0 0)
(0 0 0)
(0 0 0)
(0 0 0)
(0 0 0)
)
;

boundaryField
{
    inlet
    {
        type            fixedValue;
        value           uniform (0 0 0);
    }
    outlet
    {
        type            zeroGradient;
    }
    yzfaces
    {
        type            empty;
    }
}


// ************************************************************************* //
