/*--------------------------------*- C++ -*----------------------------------*\
  =========                 |
  \\      /  F ield         | OpenFOAM: The Open Source CFD Toolbox
   \\    /   O peration     | Website:  https://openfoam.org
    \\  /    A nd           | Version:  10
     \\/     M anipulation  |
\*---------------------------------------------------------------------------*/
FoamFile
{
    format      ascii;
    class       volVectorField;
    location    "0.62";
    object      Ub;
}
// * * * * * * * * * * * * * * * * * * * * * * * * * * * * * * * * * * * * * //

dimensions      [0 1 -1 0 0 0 0];

internalField   nonuniform List<vector> 
100
(
(3.32753e-05 0 0)
(0.000100885 0 0)
(0.00016976 0 0)
(0.000238836 0 0)
(0.000307847 0 0)
(0.000376724 0 0)
(0.000445461 0 0)
(0.00051408 0 0)
(0.000582611 0 0)
(0.000651088 0 0)
(0.000719546 0 0)
(0.00078802 0 0)
(0.000856544 0 0)
(0.000925151 0 0)
(0.000993876 0 0)
(0.00106275 0 0)
(0.00113181 0 0)
(0.00120108 0 0)
(0.00127061 0 0)
(0.00134042 0 0)
(0.00141055 0 0)
(0.00148105 0 0)
(0.00155195 0 0)
(0.0016233 0 0)
(0.00169514 0 0)
(0.00176754 0 0)
(0.00184055 0 0)
(0.00191424 0 0)
(0.00198869 0 0)
(0.00206398 0 0)
(0.00214023 0 0)
(0.00221755 0 0)
(0.00229609 0 0)
(0.00237603 0 0)
(0.00245759 0 0)
(0.00254104 0 0)
(0.00262673 0 0)
(0.00271511 0 0)
(0.00280676 0 0)
(0.00290247 0 0)
(0.00300333 0 0)
(0.00311089 0 0)
(0.00322743 0 0)
(0.00335643 0 0)
(0.00350352 0 0)
(0.0036784 0 0)
(0.00389933 0 0)
(0.00420509 0 0)
(0.00469432 0 0)
(0.0057025 0 0)
(0.00873018 0 0)
(0.0126673 0 0)
(0.0142793 0 0)
(0.0142822 0 0)
(0.0142822 0 0)
(0.0142822 0 0)
(0.0142822 0 0)
(0.0142822 0 0)
(0.0142822 0 0)
(0.0142822 0 0)
(0.0142822 0 0)
(0.0142822 0 0)
(0.0142822 0 0)
(0.0142822 0 0)
(0.0142822 0 0)
(0.0142822 0 0)
(0.0142822 0 0)
(0.0142822 0 0)
(0.0142822 0 0)
(0.0142822 0 0)
(0.0142822 0 0)
(0.0142822 0 0)
(0.0142822 0 0)
(0.0142822 0 0)
(0.0142822 0 0)
(0.0142822 0 0)
(0.0142822 0 0)
(0.0142822 0 0)
(0.0142822 0 0)
(0.0142822 0 0)
(0.0142822 0 0)
(0.0142822 0 0)
(0.0142822 0 0)
(0.0142822 0 0)
(0.0142822 0 0)
(0.0142822 0 0)
(0.0142822 0 0)
(0.0142822 0 0)
(0.0142822 0 0)
(0.0142822 0 0)
(0.0142822 0 0)
(0.0142822 0 0)
(0.0142822 0 0)
(0.0142822 0 0)
(0.0142822 0 0)
(0.0142822 0 0)
(0.0142822 0 0)
(0.0142822 0 0)
(0.0142822 0 0)
(0.0142822 0 0)
)
;

boundaryField
{
    inlet
    {
        type            fixedValue;
        value           uniform (0 0 0);
    }
    outlet
    {
        type            zeroGradient;
    }
    yzfaces
    {
        type            empty;
    }
}


// ************************************************************************* //
