/*--------------------------------*- C++ -*----------------------------------*\
  =========                 |
  \\      /  F ield         | OpenFOAM: The Open Source CFD Toolbox
   \\    /   O peration     | Website:  https://openfoam.org
    \\  /    A nd           | Version:  10
     \\/     M anipulation  |
\*---------------------------------------------------------------------------*/
FoamFile
{
    format      ascii;
    class       volVectorField;
    location    "1.035";
    object      Ua;
}
// * * * * * * * * * * * * * * * * * * * * * * * * * * * * * * * * * * * * * //

dimensions      [0 1 -1 0 0 0 0];

internalField   nonuniform List<vector> 
100
(
(0.00712053 0 0)
(0.0142207 0 0)
(0.0141798 0 0)
(0.0141384 0 0)
(0.014097 0 0)
(0.0140555 0 0)
(0.0140141 0 0)
(0.0139727 0 0)
(0.0139315 0 0)
(0.0138903 0 0)
(0.0138492 0 0)
(0.0138081 0 0)
(0.0137671 0 0)
(0.0137262 0 0)
(0.0136853 0 0)
(0.0136444 0 0)
(0.0136036 0 0)
(0.0135628 0 0)
(0.013522 0 0)
(0.0134812 0 0)
(0.0134404 0 0)
(0.0133995 0 0)
(0.0133587 0 0)
(0.0133178 0 0)
(0.0132769 0 0)
(0.013236 0 0)
(0.013195 0 0)
(0.013154 0 0)
(0.0131129 0 0)
(0.0130718 0 0)
(0.0130306 0 0)
(0.0129893 0 0)
(0.0129479 0 0)
(0.0129064 0 0)
(0.0128648 0 0)
(0.0128232 0 0)
(0.0127814 0 0)
(0.0127395 0 0)
(0.0126974 0 0)
(0.0126553 0 0)
(0.012613 0 0)
(0.0125705 0 0)
(0.0125279 0 0)
(0.0124851 0 0)
(0.0124421 0 0)
(0.0123989 0 0)
(0.0123556 0 0)
(0.0123119 0 0)
(0.0122681 0 0)
(0.012224 0 0)
(0.0121797 0 0)
(0.012135 0 0)
(0.0120901 0 0)
(0.0120448 0 0)
(0.0119992 0 0)
(0.0119531 0 0)
(0.0119067 0 0)
(0.0118598 0 0)
(0.0118124 0 0)
(0.0117644 0 0)
(0.0117158 0 0)
(0.0116666 0 0)
(0.0116165 0 0)
(0.0115656 0 0)
(0.0115138 0 0)
(0.0114608 0 0)
(0.0114065 0 0)
(0.0113507 0 0)
(0.011293 0 0)
(0.0112333 0 0)
(0.011171 0 0)
(0.0111054 0 0)
(0.0110358 0 0)
(0.0109611 0 0)
(0.0108796 0 0)
(0.010789 0 0)
(0.0106856 0 0)
(0.0105634 0 0)
(0.010412 0 0)
(0.0102118 0 0)
(0.00992041 0 0)
(0.00942709 0 0)
(0.00834066 0 0)
(0.00500409 0 0)
(0.00121897 0 0)
(7.20517e-07 0 0)
(0 0 0)
(0 0 0)
(0 0 0)
(0 0 0)
(0 0 0)
(0 0 0)
(0 0 0)
(0 0 0)
(0 0 0)
(0 0 0)
(0 0 0)
(0 0 0)
(0 0 0)
(0 0 0)
)
;

boundaryField
{
    inlet
    {
        type            fixedValue;
        value           uniform (0 0 0);
    }
    outlet
    {
        type            zeroGradient;
    }
    yzfaces
    {
        type            empty;
    }
}


// ************************************************************************* //
