/*--------------------------------*- C++ -*----------------------------------*\
  =========                 |
  \\      /  F ield         | OpenFOAM: The Open Source CFD Toolbox
   \\    /   O peration     | Website:  https://openfoam.org
    \\  /    A nd           | Version:  10
     \\/     M anipulation  |
\*---------------------------------------------------------------------------*/
FoamFile
{
    format      ascii;
    class       volVectorField;
    location    "0.48";
    object      Ua;
}
// * * * * * * * * * * * * * * * * * * * * * * * * * * * * * * * * * * * * * //

dimensions      [0 1 -1 0 0 0 0];

internalField   nonuniform List<vector> 
100
(
(0.00709806 0 0)
(0.0141516 0 0)
(0.0140626 0 0)
(0.0139734 0 0)
(0.0138844 0 0)
(0.0137956 0 0)
(0.0137069 0 0)
(0.0136182 0 0)
(0.0135295 0 0)
(0.0134407 0 0)
(0.0133517 0 0)
(0.0132624 0 0)
(0.0131729 0 0)
(0.0130829 0 0)
(0.0129924 0 0)
(0.0129014 0 0)
(0.0128098 0 0)
(0.0127173 0 0)
(0.0126241 0 0)
(0.0125298 0 0)
(0.0124344 0 0)
(0.0123377 0 0)
(0.0122396 0 0)
(0.0121397 0 0)
(0.0120378 0 0)
(0.0119335 0 0)
(0.0118264 0 0)
(0.0117157 0 0)
(0.0116008 0 0)
(0.0114804 0 0)
(0.011353 0 0)
(0.011216 0 0)
(0.0110659 0 0)
(0.0108966 0 0)
(0.0106976 0 0)
(0.0104488 0 0)
(0.010107 0 0)
(0.00955806 0 0)
(0.00839448 0 0)
(0.00492085 0 0)
(0.00113231 0 0)
(4.88678e-07 0 0)
(0 0 0)
(0 0 0)
(0 0 0)
(0 0 0)
(0 0 0)
(0 0 0)
(0 0 0)
(0 0 0)
(0 0 0)
(0 0 0)
(0 0 0)
(0 0 0)
(0 0 0)
(0 0 0)
(0 0 0)
(0 0 0)
(0 0 0)
(0 0 0)
(0 0 0)
(0 0 0)
(0 0 0)
(0 0 0)
(0 0 0)
(0 0 0)
(0 0 0)
(0 0 0)
(0 0 0)
(0 0 0)
(0 0 0)
(0 0 0)
(0 0 0)
(0 0 0)
(0 0 0)
(0 0 0)
(0 0 0)
(0 0 0)
(0 0 0)
(0 0 0)
(0 0 0)
(0 0 0)
(0 0 0)
(0 0 0)
(0 0 0)
(0 0 0)
(0 0 0)
(0 0 0)
(0 0 0)
(0 0 0)
(0 0 0)
(0 0 0)
(0 0 0)
(0 0 0)
(0 0 0)
(0 0 0)
(0 0 0)
(0 0 0)
(0 0 0)
(0 0 0)
)
;

boundaryField
{
    inlet
    {
        type            fixedValue;
        value           uniform (0 0 0);
    }
    outlet
    {
        type            zeroGradient;
    }
    yzfaces
    {
        type            empty;
    }
}


// ************************************************************************* //
