/*--------------------------------*- C++ -*----------------------------------*\
  =========                 |
  \\      /  F ield         | OpenFOAM: The Open Source CFD Toolbox
   \\    /   O peration     | Website:  https://openfoam.org
    \\  /    A nd           | Version:  10
     \\/     M anipulation  |
\*---------------------------------------------------------------------------*/
FoamFile
{
    format      ascii;
    class       volVectorField;
    location    "1.23";
    object      Ua;
}
// * * * * * * * * * * * * * * * * * * * * * * * * * * * * * * * * * * * * * //

dimensions      [0 1 -1 0 0 0 0];

internalField   nonuniform List<vector> 
100
(
(0.00712325 0 0)
(0.0142295 0 0)
(0.0141952 0 0)
(0.0141604 0 0)
(0.0141255 0 0)
(0.0140906 0 0)
(0.0140557 0 0)
(0.0140208 0 0)
(0.013986 0 0)
(0.0139513 0 0)
(0.0139166 0 0)
(0.013882 0 0)
(0.0138474 0 0)
(0.0138128 0 0)
(0.0137784 0 0)
(0.0137439 0 0)
(0.0137095 0 0)
(0.0136751 0 0)
(0.0136408 0 0)
(0.0136065 0 0)
(0.0135722 0 0)
(0.0135379 0 0)
(0.0135036 0 0)
(0.0134693 0 0)
(0.013435 0 0)
(0.0134007 0 0)
(0.0133664 0 0)
(0.0133321 0 0)
(0.0132978 0 0)
(0.0132634 0 0)
(0.013229 0 0)
(0.0131946 0 0)
(0.0131602 0 0)
(0.0131257 0 0)
(0.0130912 0 0)
(0.0130566 0 0)
(0.013022 0 0)
(0.0129873 0 0)
(0.0129526 0 0)
(0.0129178 0 0)
(0.012883 0 0)
(0.0128481 0 0)
(0.0128131 0 0)
(0.0127781 0 0)
(0.0127429 0 0)
(0.0127077 0 0)
(0.0126724 0 0)
(0.012637 0 0)
(0.0126015 0 0)
(0.0125659 0 0)
(0.0125302 0 0)
(0.0124944 0 0)
(0.0124585 0 0)
(0.0124224 0 0)
(0.0123862 0 0)
(0.0123499 0 0)
(0.0123134 0 0)
(0.0122767 0 0)
(0.0122399 0 0)
(0.012203 0 0)
(0.0121658 0 0)
(0.0121285 0 0)
(0.0120909 0 0)
(0.0120532 0 0)
(0.0120152 0 0)
(0.0119769 0 0)
(0.0119384 0 0)
(0.0118997 0 0)
(0.0118606 0 0)
(0.0118212 0 0)
(0.0117814 0 0)
(0.0117412 0 0)
(0.0117006 0 0)
(0.0116596 0 0)
(0.0116181 0 0)
(0.0115759 0 0)
(0.0115332 0 0)
(0.0114897 0 0)
(0.0114455 0 0)
(0.0114004 0 0)
(0.0113542 0 0)
(0.0113068 0 0)
(0.0112581 0 0)
(0.0112077 0 0)
(0.0111553 0 0)
(0.0111006 0 0)
(0.011043 0 0)
(0.0109818 0 0)
(0.010916 0 0)
(0.0108442 0 0)
(0.0107644 0 0)
(0.0106735 0 0)
(0.0105668 0 0)
(0.0104361 0 0)
(0.0102667 0 0)
(0.0100283 0 0)
(0.00964947 0 0)
(0.00891154 0 0)
(0.00685501 0 0)
(0.00271175 0 0)
)
;

boundaryField
{
    inlet
    {
        type            fixedValue;
        value           uniform (0 0 0);
    }
    outlet
    {
        type            zeroGradient;
    }
    yzfaces
    {
        type            empty;
    }
}


// ************************************************************************* //
