/*--------------------------------*- C++ -*----------------------------------*\
  =========                 |
  \\      /  F ield         | OpenFOAM: The Open Source CFD Toolbox
   \\    /   O peration     | Website:  https://openfoam.org
    \\  /    A nd           | Version:  10
     \\/     M anipulation  |
\*---------------------------------------------------------------------------*/
FoamFile
{
    format      ascii;
    class       volVectorField;
    location    "1.45";
    object      Ua;
}
// * * * * * * * * * * * * * * * * * * * * * * * * * * * * * * * * * * * * * //

dimensions      [0 1 -1 0 0 0 0];

internalField   nonuniform List<vector> 
100
(
(0.00712524 0 0)
(0.0142362 0 0)
(0.0142072 0 0)
(0.0141778 0 0)
(0.0141482 0 0)
(0.0141186 0 0)
(0.014089 0 0)
(0.0140593 0 0)
(0.0140297 0 0)
(0.0140002 0 0)
(0.0139707 0 0)
(0.0139412 0 0)
(0.0139118 0 0)
(0.0138824 0 0)
(0.0138531 0 0)
(0.0138238 0 0)
(0.0137945 0 0)
(0.0137653 0 0)
(0.0137361 0 0)
(0.013707 0 0)
(0.0136778 0 0)
(0.0136487 0 0)
(0.0136196 0 0)
(0.0135905 0 0)
(0.0135615 0 0)
(0.0135324 0 0)
(0.0135033 0 0)
(0.0134743 0 0)
(0.0134452 0 0)
(0.0134162 0 0)
(0.0133871 0 0)
(0.0133581 0 0)
(0.013329 0 0)
(0.0132999 0 0)
(0.0132708 0 0)
(0.0132417 0 0)
(0.0132126 0 0)
(0.0131835 0 0)
(0.0131543 0 0)
(0.0131251 0 0)
(0.0130959 0 0)
(0.0130666 0 0)
(0.0130373 0 0)
(0.013008 0 0)
(0.0129787 0 0)
(0.0129493 0 0)
(0.0129199 0 0)
(0.0128904 0 0)
(0.0128609 0 0)
(0.0128313 0 0)
(0.0128017 0 0)
(0.012772 0 0)
(0.0127423 0 0)
(0.0127126 0 0)
(0.0126827 0 0)
(0.0126528 0 0)
(0.0126229 0 0)
(0.0125928 0 0)
(0.0125627 0 0)
(0.0125326 0 0)
(0.0125023 0 0)
(0.012472 0 0)
(0.0124416 0 0)
(0.0124111 0 0)
(0.0123805 0 0)
(0.0123498 0 0)
(0.012319 0 0)
(0.0122882 0 0)
(0.0122572 0 0)
(0.0122261 0 0)
(0.0121948 0 0)
(0.0121635 0 0)
(0.012132 0 0)
(0.0121004 0 0)
(0.0120687 0 0)
(0.0120368 0 0)
(0.0120047 0 0)
(0.0119725 0 0)
(0.0119401 0 0)
(0.0119075 0 0)
(0.0118747 0 0)
(0.0118417 0 0)
(0.0118085 0 0)
(0.011775 0 0)
(0.0117413 0 0)
(0.0117073 0 0)
(0.0116729 0 0)
(0.0116383 0 0)
(0.0116033 0 0)
(0.0115679 0 0)
(0.0115321 0 0)
(0.0114958 0 0)
(0.011459 0 0)
(0.0114216 0 0)
(0.0113836 0 0)
(0.0113448 0 0)
(0.0113052 0 0)
(0.0112646 0 0)
(0.0112229 0 0)
(0.01118 0 0)
)
;

boundaryField
{
    inlet
    {
        type            fixedValue;
        value           uniform (0 0 0);
    }
    outlet
    {
        type            zeroGradient;
    }
    yzfaces
    {
        type            empty;
    }
}


// ************************************************************************* //
