/*--------------------------------*- C++ -*----------------------------------*\
  =========                 |
  \\      /  F ield         | OpenFOAM: The Open Source CFD Toolbox
   \\    /   O peration     | Website:  https://openfoam.org
    \\  /    A nd           | Version:  10
     \\/     M anipulation  |
\*---------------------------------------------------------------------------*/
FoamFile
{
    format      ascii;
    class       volVectorField;
    location    "1.495";
    object      Ub;
}
// * * * * * * * * * * * * * * * * * * * * * * * * * * * * * * * * * * * * * //

dimensions      [0 1 -1 0 0 0 0];

internalField   nonuniform List<vector> 
100
(
(1.30365e-05 0 0)
(3.99458e-05 0 0)
(6.79963e-05 0 0)
(9.64825e-05 0 0)
(0.000125155 0 0)
(0.000153901 0 0)
(0.000182663 0 0)
(0.000211413 0 0)
(0.000240132 0 0)
(0.000268811 0 0)
(0.000297448 0 0)
(0.00032604 0 0)
(0.000354587 0 0)
(0.000383091 0 0)
(0.000411553 0 0)
(0.000439976 0 0)
(0.000468364 0 0)
(0.000496717 0 0)
(0.000525041 0 0)
(0.000553336 0 0)
(0.000581607 0 0)
(0.000609856 0 0)
(0.000638085 0 0)
(0.000666298 0 0)
(0.000694498 0 0)
(0.000722686 0 0)
(0.000750866 0 0)
(0.000779039 0 0)
(0.000807209 0 0)
(0.000835378 0 0)
(0.000863547 0 0)
(0.000891721 0 0)
(0.000919899 0 0)
(0.000948086 0 0)
(0.000976282 0 0)
(0.00100449 0 0)
(0.00103271 0 0)
(0.00106095 0 0)
(0.00108921 0 0)
(0.00111749 0 0)
(0.00114579 0 0)
(0.00117411 0 0)
(0.00120246 0 0)
(0.00123084 0 0)
(0.00125925 0 0)
(0.0012877 0 0)
(0.00131617 0 0)
(0.00134469 0 0)
(0.00137324 0 0)
(0.00140183 0 0)
(0.00143047 0 0)
(0.00145915 0 0)
(0.00148787 0 0)
(0.00151665 0 0)
(0.00154548 0 0)
(0.00157436 0 0)
(0.00160329 0 0)
(0.00163229 0 0)
(0.00166135 0 0)
(0.00169047 0 0)
(0.00171965 0 0)
(0.00174891 0 0)
(0.00177823 0 0)
(0.00180763 0 0)
(0.00183711 0 0)
(0.00186667 0 0)
(0.00189631 0 0)
(0.00192605 0 0)
(0.00195587 0 0)
(0.00198579 0 0)
(0.0020158 0 0)
(0.00204592 0 0)
(0.00207615 0 0)
(0.00210649 0 0)
(0.00213695 0 0)
(0.00216754 0 0)
(0.00219825 0 0)
(0.00222911 0 0)
(0.0022601 0 0)
(0.00229125 0 0)
(0.00232256 0 0)
(0.00235403 0 0)
(0.00238569 0 0)
(0.00241754 0 0)
(0.00244959 0 0)
(0.00248185 0 0)
(0.00251435 0 0)
(0.00254709 0 0)
(0.0025801 0 0)
(0.00261339 0 0)
(0.002647 0 0)
(0.00268094 0 0)
(0.00271525 0 0)
(0.00274997 0 0)
(0.00278512 0 0)
(0.00282077 0 0)
(0.00285696 0 0)
(0.00289377 0 0)
(0.00293125 0 0)
(0.00296952 0 0)
)
;

boundaryField
{
    inlet
    {
        type            fixedValue;
        value           uniform (0 0 0);
    }
    outlet
    {
        type            zeroGradient;
    }
    yzfaces
    {
        type            empty;
    }
}


// ************************************************************************* //
