/*--------------------------------*- C++ -*----------------------------------*\
  =========                 |
  \\      /  F ield         | OpenFOAM: The Open Source CFD Toolbox
   \\    /   O peration     | Website:  https://openfoam.org
    \\  /    A nd           | Version:  10
     \\/     M anipulation  |
\*---------------------------------------------------------------------------*/
FoamFile
{
    format      ascii;
    class       volVectorField;
    location    "0.39";
    object      Ua;
}
// * * * * * * * * * * * * * * * * * * * * * * * * * * * * * * * * * * * * * //

dimensions      [0 1 -1 0 0 0 0];

internalField   nonuniform List<vector> 
100
(
(0.00708793 0 0)
(0.0141211 0 0)
(0.0140114 0 0)
(0.0139017 0 0)
(0.0137922 0 0)
(0.0136828 0 0)
(0.0135734 0 0)
(0.0134637 0 0)
(0.0133538 0 0)
(0.0132434 0 0)
(0.0131324 0 0)
(0.0130207 0 0)
(0.012908 0 0)
(0.0127943 0 0)
(0.0126792 0 0)
(0.0125627 0 0)
(0.0124444 0 0)
(0.0123239 0 0)
(0.0122009 0 0)
(0.0120749 0 0)
(0.0119452 0 0)
(0.0118109 0 0)
(0.0116708 0 0)
(0.0115231 0 0)
(0.0113653 0 0)
(0.0111932 0 0)
(0.0110004 0 0)
(0.0107752 0 0)
(0.0104948 0 0)
(0.0101086 0 0)
(0.00947791 0 0)
(0.00806947 0 0)
(0.00412 0 0)
(0.000588309 0 0)
(2.77919e-08 0 0)
(0 0 0)
(0 0 0)
(0 0 0)
(0 0 0)
(0 0 0)
(0 0 0)
(0 0 0)
(0 0 0)
(0 0 0)
(0 0 0)
(0 0 0)
(0 0 0)
(0 0 0)
(0 0 0)
(0 0 0)
(0 0 0)
(0 0 0)
(0 0 0)
(0 0 0)
(0 0 0)
(0 0 0)
(0 0 0)
(0 0 0)
(0 0 0)
(0 0 0)
(0 0 0)
(0 0 0)
(0 0 0)
(0 0 0)
(0 0 0)
(0 0 0)
(0 0 0)
(0 0 0)
(0 0 0)
(0 0 0)
(0 0 0)
(0 0 0)
(0 0 0)
(0 0 0)
(0 0 0)
(0 0 0)
(0 0 0)
(0 0 0)
(0 0 0)
(0 0 0)
(0 0 0)
(0 0 0)
(0 0 0)
(0 0 0)
(0 0 0)
(0 0 0)
(0 0 0)
(0 0 0)
(0 0 0)
(0 0 0)
(0 0 0)
(0 0 0)
(0 0 0)
(0 0 0)
(0 0 0)
(0 0 0)
(0 0 0)
(0 0 0)
(0 0 0)
(0 0 0)
)
;

boundaryField
{
    inlet
    {
        type            fixedValue;
        value           uniform (0 0 0);
    }
    outlet
    {
        type            zeroGradient;
    }
    yzfaces
    {
        type            empty;
    }
}


// ************************************************************************* //
